
.Version 7.0.5 of ABINIT 
.(MPI version, prepared for a x86_64_none_intel12.1 computer) 

.Copyright (C) 1998-2012 ABINIT group . 
 ABINIT comes with ABSOLUTELY NO WARRANTY.
 It is free software, and you are welcome to redistribute it
 under certain conditions (GNU General Public License,
 see ~abinit/COPYING or http://www.gnu.org/copyleft/gpl.txt).

 ABINIT is a project of the Universite Catholique de Louvain,
 Corning Inc. and other collaborators, see ~abinit/doc/developers/contributors.txt .
 Please read ~abinit/doc/users/acknowledgments.html for suggested
 acknowledgments of the ABINIT effort.
 For more information, see http://www.abinit.org .

.Starting date : Tue 21 Mar 2017.
- ( at  0h 5 )
  

 herald :  WARNING -
  The starting date is more than 3 years after the initial release
  of this version of ABINIT, namely Jan 2013.
  This version of ABINIT is not supported anymore.
  Action : please, switch to a more recent version of ABINIT.
- input  file    -> aa-ecut.in
- output file    -> aa-ecut.outA
- root for input  files -> aa-ecut_i
- root for output files -> aa-ecut_o


 DATASET    1 : space group P1 (#  1); Bravais aP (primitive triclinic)
================================================================================
 Values of the parameters that define the memory need for DATASET  1.
   intxc =         0  ionmov =         0    iscf =         7 xclevel =         1
  lmnmax =         1   lnmax =         1   mband =        10  mffmem =         1
P  mgfft =       288   mkmem =         4 mpssoang=         2     mpw =      4587
  mqgrid =     13505   natom =         6    nfft =     93312    nkpt =        38
  nloalg =         4  nspden =         1 nspinor =         1  nsppol =         1
    nsym =         1  n1xccc =         0  ntypat =         4  occopt =         1
================================================================================
P This job should need less than                      30.045 Mbytes of memory.
  Rough estimation (10% accuracy) of disk space for files :
  WF disk file :     26.599 Mbytes ; DEN or POT disk file :      0.714 Mbytes.
================================================================================

--------------------------------------------------------------------------------
------------- Echo of variables that govern the present computation ------------
--------------------------------------------------------------------------------
-
- outvars: echo of selected default values                                      
-   accesswff0 =  0 , fftalg0 =112 , wfoptalg0 =  0
-
- outvars: echo of global parameters not present in the input file              
-  max_nthreads =    0
-
 -outvars: echo values of preprocessed input variables --------
            acell      4.7500000000E+00  4.7500000000E+00  7.5000000000E+01 Bohr
              amu      1.00794000E+00  1.40067400E+01  1.08110000E+01
                       1.20110000E+01
           diemac      1.20000000E+01
             ecut      1.60000000E+01 Hartree
           getwfk          -1
           istwfk        0    0    0    0    0    0    0    0    0    0
                         0    0    0    0    0    0    0    0    0    0
                         0    0    0    0    0    0    0    3    0    0
                         6    0    0    0    5    0    8    0
           jdtset        1
              kpt     -1.66666667E-01 -3.33333333E-01  0.00000000E+00
                      -3.33333333E-01 -1.66666667E-01  0.00000000E+00
                      -1.66666667E-01 -1.66666667E-01  2.50000000E-01
                      -1.66666667E-01  3.33333333E-01  0.00000000E+00
                      -3.33333333E-01  5.00000000E-01  0.00000000E+00
                      -1.66666667E-01  5.00000000E-01  2.50000000E-01
                       5.00000000E-01 -3.33333333E-01  0.00000000E+00
                      -3.33333333E-01 -3.33333333E-01  2.50000000E-01
                      -1.66666667E-01 -3.33333333E-01  5.00000000E-01
                       3.33333333E-01 -1.66666667E-01  0.00000000E+00
                       5.00000000E-01 -1.66666667E-01  2.50000000E-01
                      -3.33333333E-01 -1.66666667E-01  5.00000000E-01
                      -1.66666667E-01 -1.66666667E-01 -2.50000000E-01
                      -1.66666667E-01  0.00000000E+00  0.00000000E+00
                      -1.66666667E-01  1.66666667E-01  2.50000000E-01
                      -3.33333333E-01  3.33333333E-01  2.50000000E-01
                      -1.66666667E-01  3.33333333E-01  5.00000000E-01
                       5.00000000E-01  5.00000000E-01  2.50000000E-01
                      -3.33333333E-01  5.00000000E-01  5.00000000E-01
                      -1.66666667E-01  5.00000000E-01 -2.50000000E-01
                       3.33333333E-01 -3.33333333E-01  2.50000000E-01
                       5.00000000E-01 -3.33333333E-01  5.00000000E-01
                      -3.33333333E-01 -3.33333333E-01 -2.50000000E-01
                       0.00000000E+00 -1.66666667E-01  0.00000000E+00
                       1.66666667E-01 -1.66666667E-01  2.50000000E-01
                       3.33333333E-01 -1.66666667E-01  5.00000000E-01
                       5.00000000E-01 -1.66666667E-01 -2.50000000E-01
                       5.00000000E-01  0.00000000E+00  0.00000000E+00
                      -3.33333333E-01  0.00000000E+00  2.50000000E-01
                      -1.66666667E-01  0.00000000E+00  5.00000000E-01
                       0.00000000E+00  5.00000000E-01  0.00000000E+00
                       0.00000000E+00 -3.33333333E-01  2.50000000E-01
                       0.00000000E+00 -1.66666667E-01  5.00000000E-01
                       3.33333333E-01  0.00000000E+00  2.50000000E-01
                       5.00000000E-01  0.00000000E+00  5.00000000E-01
                       0.00000000E+00  3.33333333E-01  2.50000000E-01
                       0.00000000E+00  5.00000000E-01  5.00000000E-01
                       0.00000000E+00  0.00000000E+00  2.50000000E-01
         kptrlatt        6    0    0      0    6    0     -3   -3    2
          kptrlen      2.85000000E+01
P           mkmem           4
            natom           6
            nband          10
           ndtset           1
            ngfft          18      18     288
             nkpt          38
            npkpt          12
            nstep          10
             nsym           1
           ntypat           4
              occ      2.000000  2.000000  2.000000  2.000000  2.000000  2.000000
                       2.000000  2.000000  2.000000  0.000000
        optforces           1
            rprim      8.6602540378E-01  5.0000000000E-01  0.0000000000E+00
                      -8.6602540378E-01  5.0000000000E-01  0.0000000000E+00
                       0.0000000000E+00  0.0000000000E+00  1.0000000000E+00
           shiftk      0.00000000E+00  0.00000000E+00  5.00000000E-01
          spgroup           1
           toldfe      1.00000000E-06 Hartree
            typat      1  2  3  4  4  1
              wtk        0.02778    0.02778    0.02778    0.02778    0.02778    0.02778
                         0.02778    0.02778    0.02778    0.02778    0.02778    0.02778
                         0.02778    0.02778    0.02778    0.02778    0.02778    0.02778
                         0.02778    0.02778    0.02778    0.02778    0.02778    0.02778
                         0.02778    0.02778    0.02778    0.01389    0.02778    0.02778
                         0.01389    0.02778    0.02778    0.02778    0.01389    0.02778
                         0.01389    0.02778
           xangst     -3.1321893141E-04 -5.6192216508E-04  4.7914248882E+00
                      -1.2616590089E-04 -2.3460859872E-04  3.7460214688E+00
                       1.4511184347E+00 -2.3460859872E-04  3.2199867246E+00
                       1.4512047118E+00 -7.7208542265E-05  1.5940639305E+00
                      -1.2313424467E-05 -2.7705072756E-05  1.1212718606E+00
                       0.0000000000E+00  0.0000000000E+00  0.0000000000E+00
            xcart     -5.9189800000E-04 -1.0618790000E-03  9.0544808250E+00
                      -2.3841900000E-04 -4.4334600000E-04  7.0789546640E+00
                       2.7422164280E+00 -4.4334600000E-04  6.0848930610E+00
                       2.7423794680E+00 -1.4590300000E-04  3.0123442670E+00
                      -2.3269000000E-05 -5.2355000000E-05  2.1188967370E+00
                       0.0000000000E+00  0.0000000000E+00  0.0000000000E+00
             xred     -2.9549715150E-04 -1.5160979587E-04  1.2072641100E-01
                      -1.2231521554E-04 -6.4356784457E-05  9.4386062187E-02
                       3.3321600987E-01 -3.3340268187E-01  8.1131907480E-02
                       3.3329844654E-01 -3.3335987938E-01  4.0164590227E-02
                      -1.3850392298E-05 -8.1938182287E-06  2.8251956493E-02
                       0.0000000000E+00  0.0000000000E+00  0.0000000000E+00
            znucl        1.00000    7.00000    5.00000    6.00000

================================================================================

 chkinp: Checking input parameters for consistency, jdtset=   1.

================================================================================
== DATASET  1 ==================================================================
-   nproc =   12

 Exchange-correlation functional for the present dataset will be:
  LDA: new Teter (4/93) with spin-polarized option - ixc=1
 Citation for XC functional:
  S. Goedecker, M. Teter, J. Huetter, PRB 54, 1703 (1996)
 
 Real(R)+Recip(G) space primitive vectors, cartesian coordinates (Bohr,Bohr^-1):
 R(1)=  4.1136207  2.3750000  0.0000000  G(1)=  0.1215474  0.2105263  0.0000000
 R(2)= -4.1136207  2.3750000  0.0000000  G(2)= -0.1215474  0.2105263  0.0000000
 R(3)=  0.0000000  0.0000000 75.0000000  G(3)=  0.0000000  0.0000000  0.0133333
 Unit cell volume ucvol=  1.4654774E+03 bohr^3
 Angles (23,13,12)=  9.00000000E+01  9.00000000E+01  1.20000000E+02 degrees

 getcut: wavevector=  0.0000  0.0000  0.0000  ngfft=  18  18 288
         ecut(hartree)=     16.000   => boxcut(ratio)=   2.10885

--- Pseudopotential description ------------------------------------------------
- pspini: atom type   1  psp file is /home/reinaldo/tiniba/pseudopotentials/hgh/1h.1.hgh
- pspatm: opening atomic psp file    /home/reinaldo/tiniba/pseudopotentials/hgh/1h.1.hgh
- Hartwigsen-Goedecker-Hutter psp for H,  from PRB58, 3641 (1998)
-  1.00000   1.00000     10605                znucl, zion, pspdat
    3    1    0    0      2001   0.00000      pspcod,pspxc,lmax,lloc,mmax,r2well
 rloc=   0.2000000
 cc1 =  -4.1802370; cc2 =   0.7250750; cc3 =   0.0000000; cc4 =   0.0000000
 rrs =   0.0000000; h11s=   0.0000000; h22s=   0.0000000; h33s=   0.0000000
-  Local part computed in reciprocal space.

 pspatm : COMMENT -
  the projectors are not normalized,
  so that the KB energies are not consistent with 
  definition in PRB44, 8503 (1991). 
  However, this does not influence the results obtained hereafter.
 pspatm: epsatm=   -0.00129784
         --- l  ekb(1:nproj) -->
 pspatm: atomic psp has been read  and splines computed

- pspini: atom type   2  psp file is /home/reinaldo/tiniba/pseudopotentials/hgh/7n.5.hgh
- pspatm: opening atomic psp file    /home/reinaldo/tiniba/pseudopotentials/hgh/7n.5.hgh
- Hartwigsen-Goedecker-Hutter psp for N,  from PRB58, 3641 (1998)
-  7.00000   5.00000     10605                znucl, zion, pspdat
    3    1    1    0      2001   0.00000      pspcod,pspxc,lmax,lloc,mmax,r2well
 rloc=   0.2891790
 cc1 = -12.2348200; cc2 =   1.7664070; cc3 =   0.0000000; cc4 =   0.0000000
 rrs =   0.2566050; h11s=  13.5522430; h22s=   0.0000000; h33s=   0.0000000
 rrp =   0.2701340; h11p=   0.0000000; h22p=   0.0000000; h33p=   0.0000000
                    k11p=   0.0031310; k22p=   0.0000000; k33p=   0.0000000
-  Local part computed in reciprocal space.

 pspatm : COMMENT -
  the projectors are not normalized,
  so that the KB energies are not consistent with 
  definition in PRB44, 8503 (1991). 
  However, this does not influence the results obtained hereafter.
 pspatm: epsatm=   -0.01437983
         --- l  ekb(1:nproj) -->
             0    0.811730
 pspatm: atomic psp has been read  and splines computed

- pspini: atom type   3  psp file is /home/reinaldo/tiniba/pseudopotentials/hgh/5b.3.hgh
- pspatm: opening atomic psp file    /home/reinaldo/tiniba/pseudopotentials/hgh/5b.3.hgh
- Hartwigsen-Goedecker-Hutter psp for B,  from PRB58, 3641 (1998)
-  5.00000   3.00000     10605                znucl, zion, pspdat
    3    1    1    0      2001   0.00000      pspcod,pspxc,lmax,lloc,mmax,r2well
 rloc=   0.4339300
 cc1 =  -5.5786420; cc2 =   0.8042510; cc3 =   0.0000000; cc4 =   0.0000000
 rrs =   0.3738430; h11s=   6.2339280; h22s=   0.0000000; h33s=   0.0000000
 rrp =   0.3603930; h11p=   0.0000000; h22p=   0.0000000; h33p=   0.0000000
                    k11p=   0.0008780; k22p=   0.0000000; k33p=   0.0000000
-  Local part computed in reciprocal space.

 pspatm : COMMENT -
  the projectors are not normalized,
  so that the KB energies are not consistent with 
  definition in PRB44, 8503 (1991). 
  However, this does not influence the results obtained hereafter.
 pspatm: epsatm=   -0.52475100
         --- l  ekb(1:nproj) -->
             0    1.154608
 pspatm: atomic psp has been read  and splines computed

- pspini: atom type   4  psp file is /home/reinaldo/tiniba/pseudopotentials/hgh/6c.4.hgh
- pspatm: opening atomic psp file    /home/reinaldo/tiniba/pseudopotentials/hgh/6c.4.hgh
- Hartwigsen-Goedecker-Hutter psp for C,  from PRB58, 3641 (1998)
-  6.00000   4.00000     10605                znucl, zion, pspdat
    3    1    1    0      2001   0.00000      pspcod,pspxc,lmax,lloc,mmax,r2well
 rloc=   0.3488300
 cc1 =  -8.5137710; cc2 =   1.2284320; cc3 =   0.0000000; cc4 =   0.0000000
 rrs =   0.3045530; h11s=   9.5228420; h22s=   0.0000000; h33s=   0.0000000
 rrp =   0.2326770; h11p=   0.0000000; h22p=   0.0000000; h33p=   0.0000000
                    k11p=   0.0041040; k22p=   0.0000000; k33p=   0.0000000
-  Local part computed in reciprocal space.

 pspatm : COMMENT -
  the projectors are not normalized,
  so that the KB energies are not consistent with 
  definition in PRB44, 8503 (1991). 
  However, this does not influence the results obtained hereafter.
 pspatm: epsatm=   -0.16969744
         --- l  ekb(1:nproj) -->
             0    0.953587
 pspatm: atomic psp has been read  and splines computed

  -1.58601851E+01                                ecore*ucvol(ha*bohr**3)
--------------------------------------------------------------------------------

P newkpt: treating     10 bands with npw=    4492 for ikpt=   1 by node    0
P newkpt: treating     10 bands with npw=    4492 for ikpt=   2 by node    0
P newkpt: treating     10 bands with npw=    4468 for ikpt=   3 by node    0
P newkpt: treating     10 bands with npw=    4472 for ikpt=   4 by node    0
P newkpt: treating     10 bands with npw=    4492 for ikpt=   5 by node    1
P newkpt: treating     10 bands with npw=    4492 for ikpt=   6 by node    1
P newkpt: treating     10 bands with npw=    4492 for ikpt=   7 by node    1
P newkpt: treating     10 bands with npw=    4476 for ikpt=   8 by node    1
P newkpt: treating     10 bands with npw=    4494 for ikpt=   9 by node    2
P newkpt: treating     10 bands with npw=    4472 for ikpt=  10 by node    2
P newkpt: treating     10 bands with npw=    4492 for ikpt=  11 by node    2
P newkpt: treating     10 bands with npw=    4494 for ikpt=  12 by node    2
P newkpt: treating     10 bands with npw=    4468 for ikpt=  13 by node    3
P newkpt: treating     10 bands with npw=    4491 for ikpt=  14 by node    3
P newkpt: treating     10 bands with npw=    4493 for ikpt=  15 by node    3
P newkpt: treating     10 bands with npw=    4451 for ikpt=  16 by node    3
P newkpt: treating     10 bands with npw=    4474 for ikpt=  17 by node    4
P newkpt: treating     10 bands with npw=    4476 for ikpt=  18 by node    4
P newkpt: treating     10 bands with npw=    4494 for ikpt=  19 by node    4
P newkpt: treating     10 bands with npw=    4492 for ikpt=  20 by node    4
P newkpt: treating     10 bands with npw=    4451 for ikpt=  21 by node    5
P newkpt: treating     10 bands with npw=    4494 for ikpt=  22 by node    5
P newkpt: treating     10 bands with npw=    4476 for ikpt=  23 by node    5
P newkpt: treating     10 bands with npw=    4491 for ikpt=  24 by node    5
P newkpt: treating     10 bands with npw=    4493 for ikpt=  25 by node    6
P newkpt: treating     10 bands with npw=    4474 for ikpt=  26 by node    6
P newkpt: treating     10 bands with npw=    4492 for ikpt=  27 by node    6
P newkpt: treating     10 bands with npw=    2242 for ikpt=  28 by node    6
P newkpt: treating     10 bands with npw=    4451 for ikpt=  29 by node    7
P newkpt: treating     10 bands with npw=    4498 for ikpt=  30 by node    7
P newkpt: treating     10 bands with npw=    2242 for ikpt=  31 by node    7
P newkpt: treating     10 bands with npw=    4451 for ikpt=  32 by node    7
P newkpt: treating     10 bands with npw=    4498 for ikpt=  33 by node    8
P newkpt: treating     10 bands with npw=    4451 for ikpt=  34 by node    8
P newkpt: treating     10 bands with npw=    2242 for ikpt=  35 by node    8
P newkpt: treating     10 bands with npw=    4451 for ikpt=  36 by node    8
P newkpt: treating     10 bands with npw=    2242 for ikpt=  37 by node    9
P newkpt: treating     10 bands with npw=    4587 for ikpt=  38 by node    9
 
 setup2: Arith. and geom. avg. npw (full set) are    4483.139    4483.078

================================================================================

     iter   Etot(hartree)      deltaE(h)  residm     vres2    diffor    maxfor
 ETOT  1  -24.384305525458    -2.438E+01 1.172E-01 3.181E+04 1.087E-01 1.087E-01
 ETOT  2  -24.769092714557    -3.848E-01 2.105E-02 2.980E+03 1.400E-01 5.470E-02
 ETOT  3  -24.828024742817    -5.893E-02 2.797E-02 2.091E+03 1.050E-01 7.387E-02
 ETOT  4  -24.837839518573    -9.815E-03 8.618E-03 1.363E+03 7.818E-02 2.059E-02
 ETOT  5  -24.849583777982    -1.174E-02 2.292E-03 3.592E+02 3.793E-02 2.149E-02
 ETOT  6  -24.849567503780     1.627E-05 1.555E-04 2.955E+02 3.497E-03 1.817E-02
 ETOT  7  -24.850493668982    -9.262E-04 1.339E-04 1.156E+02 8.909E-03 2.708E-02
 ETOT  8  -24.850466424184     2.724E-05 1.374E-05 7.898E+01 3.140E-03 2.669E-02
 ETOT  9  -24.850599626926    -1.332E-04 3.772E-06 4.550E+01 1.483E-03 2.812E-02
 ETOT 10  -24.850701908698    -1.023E-04 2.196E-05 2.776E+00 4.781E-03 3.290E-02

 Cartesian components of stress tensor (hartree/bohr^3)
  sigma(1 1)=  4.12012756E-04  sigma(3 2)= -1.15048041E-07
  sigma(2 2)=  4.11851890E-04  sigma(3 1)= -2.91222510E-08
  sigma(3 3)=  3.88276644E-04  sigma(2 1)=  3.42023528E-08
 

 scprqt:  WARNING -
  nstep=   10 was not enough SCF cycles to converge;
  maximum energy difference=  1.023E-04 exceeds toldfe=  1.000E-06

================================================================================

 ----iterations are completed or convergence reached----

 Mean square residual over all n,k,spin=   1.8819E-06; max=  2.1957E-05
  -0.1667 -0.3333  0.0000    1  1.45603E-05 kpt; spin; max resid(k); each band:
  9.28E-07 3.53E-07 1.89E-07 3.79E-07 1.66E-06 1.21E-07 3.52E-07 6.21E-07
  1.97E-07 1.46E-05
  -0.3333 -0.1667  0.0000    1  1.45507E-05 kpt; spin; max resid(k); each band:
  9.27E-07 3.52E-07 1.85E-07 3.83E-07 1.65E-06 1.22E-07 3.52E-07 6.19E-07
  1.95E-07 1.46E-05
  -0.1667 -0.1667  0.2500    1  6.75942E-06 kpt; spin; max resid(k); each band:
  8.98E-07 4.72E-07 1.70E-06 6.87E-07 8.79E-07 5.19E-07 2.97E-07 1.74E-07
  1.42E-06 6.76E-06
  -0.1667  0.3333  0.0000    1  6.75375E-06 kpt; spin; max resid(k); each band:
  9.01E-07 4.71E-07 1.70E-06 6.87E-07 8.63E-07 5.07E-07 2.88E-07 1.76E-07
  1.43E-06 6.75E-06
  -0.3333  0.5000  0.0000    1  1.45507E-05 kpt; spin; max resid(k); each band:
  9.31E-07 3.52E-07 1.87E-07 3.75E-07 1.65E-06 1.19E-07 3.56E-07 6.27E-07
  2.05E-07 1.46E-05
  -0.1667  0.5000  0.2500    1  1.47694E-05 kpt; spin; max resid(k); each band:
  9.31E-07 3.52E-07 1.89E-07 3.81E-07 1.65E-06 1.21E-07 3.54E-07 6.20E-07
  2.05E-07 1.48E-05
   0.5000 -0.3333  0.0000    1  1.46530E-05 kpt; spin; max resid(k); each band:
  9.30E-07 3.52E-07 1.87E-07 3.74E-07 1.66E-06 1.21E-07 3.54E-07 6.28E-07
  2.01E-07 1.47E-05
  -0.3333 -0.3333  0.2500    1  8.37222E-07 kpt; spin; max resid(k); each band:
  8.37E-07 4.85E-07 6.16E-08 8.09E-08 4.07E-08 7.87E-07 7.33E-08 4.27E-07
  6.19E-08 3.97E-07
  -0.1667 -0.3333  0.5000    1  1.47833E-05 kpt; spin; max resid(k); each band:
  9.28E-07 3.53E-07 1.89E-07 3.81E-07 1.66E-06 1.21E-07 3.51E-07 6.22E-07
  1.97E-07 1.48E-05
   0.3333 -0.1667  0.0000    1  6.75753E-06 kpt; spin; max resid(k); each band:
  8.99E-07 4.71E-07 1.70E-06 6.89E-07 8.72E-07 5.11E-07 2.95E-07 1.76E-07
  1.43E-06 6.76E-06
   0.5000 -0.1667  0.2500    1  1.46273E-05 kpt; spin; max resid(k); each band:
  9.28E-07 3.52E-07 1.86E-07 3.83E-07 1.65E-06 1.24E-07 3.53E-07 6.18E-07
  1.99E-07 1.46E-05
  -0.3333 -0.1667  0.5000    1  1.46804E-05 kpt; spin; max resid(k); each band:
  9.27E-07 3.52E-07 1.85E-07 3.85E-07 1.65E-06 1.22E-07 3.51E-07 6.19E-07
  1.95E-07 1.47E-05
  -0.1667 -0.1667 -0.2500    1  6.75458E-06 kpt; spin; max resid(k); each band:
  8.98E-07 4.73E-07 1.70E-06 6.87E-07 8.79E-07 5.19E-07 2.97E-07 1.74E-07
  1.42E-06 6.75E-06
  -0.1667  0.0000  0.0000    1  1.40790E-05 kpt; spin; max resid(k); each band:
  9.00E-07 5.31E-07 1.79E-06 2.62E-06 1.13E-07 9.69E-09 3.69E-07 6.56E-06
  1.54E-08 1.41E-05
  -0.1667  0.1667  0.2500    1  1.40739E-05 kpt; spin; max resid(k); each band:
  9.02E-07 5.30E-07 1.79E-06 2.62E-06 1.15E-07 9.36E-09 3.68E-07 6.59E-06
  1.45E-08 1.41E-05
  -0.3333  0.3333  0.2500    1  8.34515E-06 kpt; spin; max resid(k); each band:
  9.12E-07 4.27E-07 1.23E-06 9.22E-07 3.20E-07 1.44E-06 1.19E-08 1.47E-08
  5.71E-07 8.35E-06
  -0.1667  0.3333  0.5000    1  6.74956E-06 kpt; spin; max resid(k); each band:
  9.01E-07 4.72E-07 1.70E-06 6.86E-07 8.64E-07 5.08E-07 2.89E-07 1.76E-07
  1.43E-06 6.75E-06
   0.5000  0.5000  0.2500    1  1.78182E-05 kpt; spin; max resid(k); each band:
  9.19E-07 3.26E-07 2.43E-07 2.40E-07 9.17E-07 1.31E-08 3.78E-07 1.57E-08
  1.89E-07 1.78E-05
  -0.3333  0.5000  0.5000    1  1.47430E-05 kpt; spin; max resid(k); each band:
  9.31E-07 3.52E-07 1.87E-07 3.76E-07 1.65E-06 1.19E-07 3.55E-07 6.27E-07
  2.05E-07 1.47E-05
  -0.1667  0.5000 -0.2500    1  1.45503E-05 kpt; spin; max resid(k); each band:
  9.31E-07 3.53E-07 1.89E-07 3.80E-07 1.65E-06 1.21E-07 3.55E-07 6.20E-07
  2.04E-07 1.46E-05
   0.3333 -0.3333  0.2500    1  8.02887E-06 kpt; spin; max resid(k); each band:
  9.12E-07 4.27E-07 1.23E-06 9.23E-07 3.19E-07 1.44E-06 1.19E-08 1.47E-08
  5.71E-07 8.03E-06
   0.5000 -0.3333  0.5000    1  1.45799E-05 kpt; spin; max resid(k); each band:
  9.30E-07 3.52E-07 1.87E-07 3.75E-07 1.66E-06 1.21E-07 3.53E-07 6.28E-07
  2.01E-07 1.46E-05
  -0.3333 -0.3333 -0.2500    1  8.37222E-07 kpt; spin; max resid(k); each band:
  8.37E-07 4.85E-07 6.16E-08 8.09E-08 4.07E-08 7.87E-07 7.33E-08 4.27E-07
  6.19E-08 3.97E-07
   0.0000 -0.1667  0.0000    1  1.40884E-05 kpt; spin; max resid(k); each band:
  9.01E-07 5.31E-07 1.79E-06 2.62E-06 1.16E-07 1.04E-08 3.68E-07 6.57E-06
  1.51E-08 1.41E-05
   0.1667 -0.1667  0.2500    1  1.40763E-05 kpt; spin; max resid(k); each band:
  9.01E-07 5.30E-07 1.79E-06 2.62E-06 1.16E-07 9.38E-09 3.67E-07 6.57E-06
  1.45E-08 1.41E-05
   0.3333 -0.1667  0.5000    1  6.75571E-06 kpt; spin; max resid(k); each band:
  8.99E-07 4.72E-07 1.70E-06 6.87E-07 8.73E-07 5.11E-07 2.96E-07 1.77E-07
  1.42E-06 6.76E-06
   0.5000 -0.1667 -0.2500    1  1.45889E-05 kpt; spin; max resid(k); each band:
  9.28E-07 3.52E-07 1.86E-07 3.84E-07 1.65E-06 1.23E-07 3.53E-07 6.19E-07
  1.99E-07 1.46E-05
   0.5000  0.0000  0.0000    1  1.78103E-05 kpt; spin; max resid(k); each band:
  9.18E-07 3.17E-07 2.49E-07 2.43E-07 9.01E-07 1.41E-08 3.82E-07 1.73E-08
  1.80E-07 1.78E-05
  -0.3333  0.0000  0.2500    1  8.27122E-06 kpt; spin; max resid(k); each band:
  9.10E-07 4.29E-07 1.24E-06 9.26E-07 3.23E-07 1.45E-06 1.29E-08 1.64E-08
  5.66E-07 8.27E-06
  -0.1667  0.0000  0.5000    1  1.40564E-05 kpt; spin; max resid(k); each band:
  9.00E-07 5.32E-07 1.79E-06 2.61E-06 1.12E-07 9.71E-09 3.69E-07 6.56E-06
  1.57E-08 1.41E-05
   0.0000  0.5000  0.0000    1  1.78854E-05 kpt; spin; max resid(k); each band:
  9.19E-07 3.22E-07 2.51E-07 2.43E-07 9.12E-07 1.40E-08 3.80E-07 1.64E-08
  1.86E-07 1.79E-05
   0.0000 -0.3333  0.2500    1  8.40659E-06 kpt; spin; max resid(k); each band:
  9.11E-07 4.29E-07 1.23E-06 9.24E-07 3.23E-07 1.44E-06 1.30E-08 1.56E-08
  5.69E-07 8.41E-06
   0.0000 -0.1667  0.5000    1  1.40767E-05 kpt; spin; max resid(k); each band:
  9.01E-07 5.32E-07 1.79E-06 2.61E-06 1.15E-07 1.04E-08 3.68E-07 6.57E-06
  1.52E-08 1.41E-05
   0.3333  0.0000  0.2500    1  8.62709E-06 kpt; spin; max resid(k); each band:
  9.10E-07 4.29E-07 1.24E-06 9.25E-07 3.24E-07 1.45E-06 1.29E-08 1.64E-08
  5.65E-07 8.63E-06
   0.5000  0.0000  0.5000    1  1.81384E-05 kpt; spin; max resid(k); each band:
  9.18E-07 3.18E-07 2.49E-07 2.43E-07 9.01E-07 1.42E-08 3.80E-07 1.74E-08
  1.80E-07 1.81E-05
   0.0000  0.3333  0.2500    1  8.48225E-06 kpt; spin; max resid(k); each band:
  9.11E-07 4.29E-07 1.23E-06 9.26E-07 3.22E-07 1.44E-06 1.30E-08 1.55E-08
  5.69E-07 8.48E-06
   0.0000  0.5000  0.5000    1  1.76768E-05 kpt; spin; max resid(k); each band:
  9.19E-07 3.23E-07 2.50E-07 2.43E-07 9.12E-07 1.41E-08 3.79E-07 1.65E-08
  1.86E-07 1.77E-05
   0.0000  0.0000  0.2500    1  2.19568E-05 kpt; spin; max resid(k); each band:
  9.05E-07 5.61E-07 1.81E-06 3.18E-06 7.75E-09 7.78E-09 1.14E-05 2.09E-08
  2.16E-08 2.20E-05
 reduced coordinates (array xred) for    6 atoms
      -0.000295497152     -0.000151609796      0.120726411000
      -0.000122315216     -0.000064356784      0.094386062187
       0.333216009872     -0.333402681872      0.081131907480
       0.333298446543     -0.333359879385      0.040164590227
      -0.000013850392     -0.000008193818      0.028251956493
       0.000000000000      0.000000000000      0.000000000000
 rms dE/dt=  6.6848E-01; max dE/dt=  1.0745E+00; dE/dt below (all hartree)
    1      -0.000089397426      0.000019800498     -2.469322782086
    2      -0.000060504959      0.000083283564      1.074528540313
    3       0.000102475783     -0.000128694354     -0.003508628238
    4       0.000116775726     -0.000292664198      0.276748433820
    5      -0.000075621377      0.000289955726      0.333872871205
    6       0.000000601874      0.000035416870      0.776686770731
 
 cartesian coordinates (angstrom) at end:
    1     -0.00031321893141    -0.00056192216508     4.79142488820518
    2     -0.00012616590089    -0.00023460859872     3.74602146883068
    3      1.45111843471868    -0.00023460859872     3.21998672458864
    4      1.45120471177077    -0.00007720854226     1.59406393052315
    5     -0.00001231342447    -0.00002770507276     1.12127186057612
    6      0.00000000000000     0.00000000000000     0.00000000000000

 cartesian forces (hartree/bohr) at end:
    1      0.00001301406372     0.00001470208038     0.03289987088502
    2      0.00001721846194    -0.00000474539997    -0.01435148008030
    3     -0.00002835679768     0.00000556979470     0.00002234883372
    4     -0.00005002503127     0.00003707924765    -0.00371441199372
    5      0.00004417629285    -0.00004507292503    -0.00447607115885
    6      0.00000397301044    -0.00000753279773    -0.01038025648587
 frms,max,avg= 8.9130312E-03 3.2899871E-02   2.587E-07 -5.010E-08  2.443E-05 h/b

 cartesian forces (eV/Angstrom) at end:
    1      0.00066921000691     0.00075601130630     1.69177923966571
    2      0.00088540883779    -0.00024401825707    -0.73798271559108
    3     -0.00145816504234     0.00028641033514     0.00114922313994
    4     -0.00257239031894     0.00190669141578    -0.19100272826304
    5      0.00227163612262    -0.00231774279915    -0.23016881398340
    6      0.00020430039397    -0.00038735200100    -0.53377420496813
 frms,max,avg= 4.5832645E-01 1.6917792E+00   1.330E-05 -2.576E-06  1.256E-03 e/A
 length scales=  4.750000000000  4.750000000000 75.000000000000 bohr
              =  2.513591740802  2.513591740802 39.688290644250 angstroms
 prteigrs : about to open file aa-ecut_o_DS1_EIG
 Fermi (or HOMO) energy (hartree) =  -0.06385   Average Vxc (hartree)=  -0.08660
 Eigenvalues (hartree) for nkpt=  38  k points:
 kpt#   1, nband= 10, wtk=  0.02778, kpt= -0.1667 -0.3333  0.0000 (reduced coord)
  -0.71838  -0.56119  -0.44820  -0.40078  -0.36967  -0.31602  -0.26029  -0.23643
  -0.15711   0.11590
 kpt#   2, nband= 10, wtk=  0.02778, kpt= -0.3333 -0.1667  0.0000 (reduced coord)
  -0.71838  -0.56119  -0.44819  -0.40077  -0.36969  -0.31602  -0.26030  -0.23643
  -0.15710   0.11592
 kpt#   3, nband= 10, wtk=  0.02778, kpt= -0.1667 -0.1667  0.2500 (reduced coord)
  -0.77664  -0.65029  -0.43439  -0.33088  -0.31017  -0.25792  -0.24531  -0.18841
  -0.11596   0.02703
 kpt#   4, nband= 10, wtk=  0.02778, kpt= -0.1667  0.3333  0.0000 (reduced coord)
  -0.77665  -0.65028  -0.43439  -0.33091  -0.31029  -0.25797  -0.24536  -0.18849
  -0.11603   0.02701
 kpt#   5, nband= 10, wtk=  0.02778, kpt= -0.3333  0.5000  0.0000 (reduced coord)
  -0.71838  -0.56119  -0.44820  -0.40079  -0.36968  -0.31601  -0.26028  -0.23641
  -0.15711   0.11591
 kpt#   6, nband= 10, wtk=  0.02778, kpt= -0.1667  0.5000  0.2500 (reduced coord)
  -0.71840  -0.56119  -0.44826  -0.40078  -0.36955  -0.31609  -0.26029  -0.23641
  -0.15712   0.11592
 kpt#   7, nband= 10, wtk=  0.02778, kpt=  0.5000 -0.3333  0.0000 (reduced coord)
  -0.71838  -0.56119  -0.44820  -0.40079  -0.36967  -0.31602  -0.26029  -0.23642
  -0.15711   0.11590
 kpt#   8, nband= 10, wtk=  0.02778, kpt= -0.3333 -0.3333  0.2500 (reduced coord)
  -0.69292  -0.47489  -0.47396  -0.41675  -0.39612  -0.34930  -0.33948  -0.20834
  -0.18770   0.13163
 kpt#   9, nband= 10, wtk=  0.02778, kpt= -0.1667 -0.3333  0.5000 (reduced coord)
  -0.71844  -0.56120  -0.44825  -0.40073  -0.36960  -0.31611  -0.26037  -0.23642
  -0.15715   0.11590
 kpt#  10, nband= 10, wtk=  0.02778, kpt=  0.3333 -0.1667  0.0000 (reduced coord)
  -0.77665  -0.65028  -0.43438  -0.33091  -0.31029  -0.25798  -0.24535  -0.18851
  -0.11603   0.02701
 kpt#  11, nband= 10, wtk=  0.02778, kpt=  0.5000 -0.1667  0.2500 (reduced coord)
  -0.71841  -0.56117  -0.44825  -0.40079  -0.36957  -0.31606  -0.26033  -0.23642
  -0.15711   0.11594
 kpt#  12, nband= 10, wtk=  0.02778, kpt= -0.3333 -0.1667  0.5000 (reduced coord)
  -0.71844  -0.56120  -0.44825  -0.40072  -0.36962  -0.31611  -0.26038  -0.23643
  -0.15714   0.11592
 kpt#  13, nband= 10, wtk=  0.02778, kpt= -0.1667 -0.1667 -0.2500 (reduced coord)
  -0.77664  -0.65029  -0.43439  -0.33088  -0.31017  -0.25792  -0.24531  -0.18841
  -0.11596   0.02703
 kpt#  14, nband= 10, wtk=  0.02778, kpt= -0.1667  0.0000  0.0000 (reduced coord)
  -0.81598  -0.69795  -0.47225  -0.33385  -0.23599  -0.18019  -0.15806  -0.11861
  -0.10254  -0.01570
 kpt#  15, nband= 10, wtk=  0.02778, kpt= -0.1667  0.1667  0.2500 (reduced coord)
  -0.81597  -0.69803  -0.47229  -0.33379  -0.23591  -0.18033  -0.15801  -0.11863
  -0.10262  -0.01567
 kpt#  16, nband= 10, wtk=  0.02778, kpt= -0.3333  0.3333  0.2500 (reduced coord)
  -0.75956  -0.62717  -0.42324  -0.38719  -0.33626  -0.27682  -0.23007  -0.15731
  -0.12944   0.04703
 kpt#  17, nband= 10, wtk=  0.02778, kpt= -0.1667  0.3333  0.5000 (reduced coord)
  -0.77673  -0.65031  -0.43437  -0.33086  -0.31021  -0.25801  -0.24536  -0.18845
  -0.11601   0.02700
 kpt#  18, nband= 10, wtk=  0.02778, kpt=  0.5000  0.5000  0.2500 (reduced coord)
  -0.71451  -0.53832  -0.49867  -0.44241  -0.36956  -0.25127  -0.24657  -0.17972
  -0.17337   0.12506
 kpt#  19, nband= 10, wtk=  0.02778, kpt= -0.3333  0.5000  0.5000 (reduced coord)
  -0.71844  -0.56120  -0.44825  -0.40074  -0.36961  -0.31611  -0.26037  -0.23641
  -0.15715   0.11591
 kpt#  20, nband= 10, wtk=  0.02778, kpt= -0.1667  0.5000 -0.2500 (reduced coord)
  -0.71841  -0.56117  -0.44825  -0.40080  -0.36957  -0.31606  -0.26032  -0.23641
  -0.15713   0.11593
 kpt#  21, nband= 10, wtk=  0.02778, kpt=  0.3333 -0.3333  0.2500 (reduced coord)
  -0.75958  -0.62714  -0.42324  -0.38720  -0.33626  -0.27682  -0.22999  -0.15744
  -0.12943   0.04703
 kpt#  22, nband= 10, wtk=  0.02778, kpt=  0.5000 -0.3333  0.5000 (reduced coord)
  -0.71844  -0.56120  -0.44826  -0.40073  -0.36960  -0.31611  -0.26037  -0.23642
  -0.15715   0.11590
 kpt#  23, nband= 10, wtk=  0.02778, kpt= -0.3333 -0.3333 -0.2500 (reduced coord)
  -0.69292  -0.47489  -0.47396  -0.41675  -0.39612  -0.34930  -0.33948  -0.20834
  -0.18770   0.13163
 kpt#  24, nband= 10, wtk=  0.02778, kpt=  0.0000 -0.1667  0.0000 (reduced coord)
  -0.81598  -0.69795  -0.47225  -0.33385  -0.23598  -0.18019  -0.15807  -0.11862
  -0.10252  -0.01570
 kpt#  25, nband= 10, wtk=  0.02778, kpt=  0.1667 -0.1667  0.2500 (reduced coord)
  -0.81603  -0.69795  -0.47225  -0.33385  -0.23589  -0.18030  -0.15803  -0.11864
  -0.10267  -0.01570
 kpt#  26, nband= 10, wtk=  0.02778, kpt=  0.3333 -0.1667  0.5000 (reduced coord)
  -0.77673  -0.65031  -0.43437  -0.33086  -0.31021  -0.25802  -0.24536  -0.18847
  -0.11601   0.02700
 kpt#  27, nband= 10, wtk=  0.02778, kpt=  0.5000 -0.1667 -0.2500 (reduced coord)
  -0.71840  -0.56119  -0.44825  -0.40077  -0.36955  -0.31609  -0.26030  -0.23643
  -0.15710   0.11594
 kpt#  28, nband= 10, wtk=  0.01389, kpt=  0.5000  0.0000  0.0000 (reduced coord)
  -0.71461  -0.53843  -0.49870  -0.44251  -0.36965  -0.25140  -0.24663  -0.17990
  -0.17336   0.12509
 kpt#  29, nband= 10, wtk=  0.02778, kpt= -0.3333  0.0000  0.2500 (reduced coord)
  -0.75958  -0.62714  -0.42323  -0.38719  -0.33626  -0.27683  -0.22999  -0.15746
  -0.12942   0.04703
 kpt#  30, nband= 10, wtk=  0.02778, kpt= -0.1667  0.0000  0.5000 (reduced coord)
  -0.81606  -0.69798  -0.47225  -0.33402  -0.23590  -0.18044  -0.15796  -0.11870
  -0.10268  -0.01575
 kpt#  31, nband= 10, wtk=  0.01389, kpt=  0.0000  0.5000  0.0000 (reduced coord)
  -0.71461  -0.53842  -0.49871  -0.44251  -0.36965  -0.25139  -0.24660  -0.17989
  -0.17339   0.12503
 kpt#  32, nband= 10, wtk=  0.02778, kpt=  0.0000 -0.3333  0.2500 (reduced coord)
  -0.75956  -0.62717  -0.42324  -0.38719  -0.33626  -0.27682  -0.23007  -0.15732
  -0.12944   0.04703
 kpt#  33, nband= 10, wtk=  0.02778, kpt=  0.0000 -0.1667  0.5000 (reduced coord)
  -0.81606  -0.69798  -0.47225  -0.33403  -0.23590  -0.18043  -0.15797  -0.11870
  -0.10266  -0.01575
 kpt#  34, nband= 10, wtk=  0.02778, kpt=  0.3333  0.0000  0.2500 (reduced coord)
  -0.75956  -0.62717  -0.42323  -0.38718  -0.33626  -0.27683  -0.23007  -0.15733
  -0.12944   0.04703
 kpt#  35, nband= 10, wtk=  0.01389, kpt=  0.5000  0.0000  0.5000 (reduced coord)
  -0.71459  -0.53835  -0.49865  -0.44234  -0.36968  -0.25130  -0.24674  -0.17980
  -0.17351   0.12508
 kpt#  36, nband= 10, wtk=  0.02778, kpt=  0.0000  0.3333  0.2500 (reduced coord)
  -0.75958  -0.62714  -0.42324  -0.38720  -0.33625  -0.27682  -0.22998  -0.15744
  -0.12943   0.04703
 kpt#  37, nband= 10, wtk=  0.01389, kpt=  0.0000  0.5000  0.5000 (reduced coord)
  -0.71459  -0.53834  -0.49867  -0.44234  -0.36968  -0.25130  -0.24670  -0.17980
  -0.17354   0.12502
 kpt#  38, nband= 10, wtk=  0.02778, kpt=  0.0000  0.0000  0.2500 (reduced coord)
  -0.83757  -0.72215  -0.49331  -0.35093  -0.14777  -0.14776  -0.13049  -0.06389
  -0.06385  -0.03648
 Total charge density [el/Bohr^3]
,     Maximum=    4.9203E-01  at reduced coord.    0.0556    0.8889    0.0938
,Next maximum=    4.9201E-01  at reduced coord.    0.0556    0.1667    0.0938
,     Minimum=    1.2976E-07  at reduced coord.    0.1667    0.8333    0.5521
,Next minimum=    1.3343E-07  at reduced coord.    0.8889    0.1111    0.5694
,  Integrated=    1.8000E+01

--------------------------------------------------------------------------------
 Components of total free energy (in Hartree) :

    Kinetic energy  =  1.81281699902827E+01
    Hartree energy  =  5.03342282255729E+02
    XC energy       = -7.82673086298705E+00
    Ewald energy    =  4.82763470279089E+02
    PspCore energy  = -1.08225384392824E-02
    Loc. psp. energy= -1.02342965825271E+03
    NL   psp  energy=  2.18258722033559E+00
    >>>>>>>>> Etotal= -2.48507019086979E+01

 Other information on the energy :
    Total energy(eV)= -6.76221988828014E+02 ; Band energy (Ha)=  -6.6898266504E+00
--------------------------------------------------------------------------------

 Cartesian components of stress tensor (hartree/bohr^3)
  sigma(1 1)=  4.12012756E-04  sigma(3 2)= -1.15048041E-07
  sigma(2 2)=  4.11851890E-04  sigma(3 1)= -2.91222510E-08
  sigma(3 3)=  3.88276644E-04  sigma(2 1)=  3.42023528E-08

-Cartesian components of stress tensor (GPa)         [Pressure= -1.1887E+01 GPa]
- sigma(1 1)=  1.21218317E+01  sigma(3 2)= -3.38482965E-03
- sigma(2 2)=  1.21170989E+01  sigma(3 1)= -8.56806060E-04
- sigma(3 3)=  1.14234913E+01  sigma(2 1)=  1.00626779E-03

== END DATASET(S) ==============================================================
================================================================================
  
 -outvars: echo values of variables after computation  --------
            acell      4.7500000000E+00  4.7500000000E+00  7.5000000000E+01 Bohr
              amu      1.00794000E+00  1.40067400E+01  1.08110000E+01
                       1.20110000E+01
           diemac      1.20000000E+01
             ecut      1.60000000E+01 Hartree
           etotal1    -2.4850701909E+01
            fcart1     1.3014063718E-05  1.4702080379E-05  3.2899870885E-02
                       1.7218461937E-05 -4.7453999688E-06 -1.4351480080E-02
                      -2.8356797682E-05  5.5697947021E-06  2.2348833722E-05
                      -5.0025031266E-05  3.7079247650E-05 -3.7144119937E-03
                       4.4176292852E-05 -4.5072925030E-05 -4.4760711589E-03
                       3.9730104411E-06 -7.5327977322E-06 -1.0380256486E-02
           getwfk          -1
           istwfk        0    0    0    0    0    0    0    0    0    0
                         0    0    0    0    0    0    0    0    0    0
                         0    0    0    0    0    0    0    3    0    0
                         6    0    0    0    5    0    8    0
           jdtset        1
              kpt     -1.66666667E-01 -3.33333333E-01  0.00000000E+00
                      -3.33333333E-01 -1.66666667E-01  0.00000000E+00
                      -1.66666667E-01 -1.66666667E-01  2.50000000E-01
                      -1.66666667E-01  3.33333333E-01  0.00000000E+00
                      -3.33333333E-01  5.00000000E-01  0.00000000E+00
                      -1.66666667E-01  5.00000000E-01  2.50000000E-01
                       5.00000000E-01 -3.33333333E-01  0.00000000E+00
                      -3.33333333E-01 -3.33333333E-01  2.50000000E-01
                      -1.66666667E-01 -3.33333333E-01  5.00000000E-01
                       3.33333333E-01 -1.66666667E-01  0.00000000E+00
                       5.00000000E-01 -1.66666667E-01  2.50000000E-01
                      -3.33333333E-01 -1.66666667E-01  5.00000000E-01
                      -1.66666667E-01 -1.66666667E-01 -2.50000000E-01
                      -1.66666667E-01  0.00000000E+00  0.00000000E+00
                      -1.66666667E-01  1.66666667E-01  2.50000000E-01
                      -3.33333333E-01  3.33333333E-01  2.50000000E-01
                      -1.66666667E-01  3.33333333E-01  5.00000000E-01
                       5.00000000E-01  5.00000000E-01  2.50000000E-01
                      -3.33333333E-01  5.00000000E-01  5.00000000E-01
                      -1.66666667E-01  5.00000000E-01 -2.50000000E-01
                       3.33333333E-01 -3.33333333E-01  2.50000000E-01
                       5.00000000E-01 -3.33333333E-01  5.00000000E-01
                      -3.33333333E-01 -3.33333333E-01 -2.50000000E-01
                       0.00000000E+00 -1.66666667E-01  0.00000000E+00
                       1.66666667E-01 -1.66666667E-01  2.50000000E-01
                       3.33333333E-01 -1.66666667E-01  5.00000000E-01
                       5.00000000E-01 -1.66666667E-01 -2.50000000E-01
                       5.00000000E-01  0.00000000E+00  0.00000000E+00
                      -3.33333333E-01  0.00000000E+00  2.50000000E-01
                      -1.66666667E-01  0.00000000E+00  5.00000000E-01
                       0.00000000E+00  5.00000000E-01  0.00000000E+00
                       0.00000000E+00 -3.33333333E-01  2.50000000E-01
                       0.00000000E+00 -1.66666667E-01  5.00000000E-01
                       3.33333333E-01  0.00000000E+00  2.50000000E-01
                       5.00000000E-01  0.00000000E+00  5.00000000E-01
                       0.00000000E+00  3.33333333E-01  2.50000000E-01
                       0.00000000E+00  5.00000000E-01  5.00000000E-01
                       0.00000000E+00  0.00000000E+00  2.50000000E-01
         kptrlatt        6    0    0      0    6    0     -3   -3    2
          kptrlen      2.85000000E+01
P           mkmem           4
            natom           6
            nband          10
           ndtset           1
            ngfft          18      18     288
             nkpt          38
            npkpt          12
            nstep          10
             nsym           1
           ntypat           4
              occ      2.000000  2.000000  2.000000  2.000000  2.000000  2.000000
                       2.000000  2.000000  2.000000  0.000000
        optforces           1
            rprim      8.6602540378E-01  5.0000000000E-01  0.0000000000E+00
                      -8.6602540378E-01  5.0000000000E-01  0.0000000000E+00
                       0.0000000000E+00  0.0000000000E+00  1.0000000000E+00
           shiftk      0.00000000E+00  0.00000000E+00  5.00000000E-01
          spgroup           1
           strten1     4.1201275560E-04  4.1185188999E-04  3.8827664379E-04
                      -1.1504804065E-07 -2.9122250965E-08  3.4202352771E-08
           toldfe      1.00000000E-06 Hartree
            typat      1  2  3  4  4  1
              wtk        0.02778    0.02778    0.02778    0.02778    0.02778    0.02778
                         0.02778    0.02778    0.02778    0.02778    0.02778    0.02778
                         0.02778    0.02778    0.02778    0.02778    0.02778    0.02778
                         0.02778    0.02778    0.02778    0.02778    0.02778    0.02778
                         0.02778    0.02778    0.02778    0.01389    0.02778    0.02778
                         0.01389    0.02778    0.02778    0.02778    0.01389    0.02778
                         0.01389    0.02778
           xangst     -3.1321893141E-04 -5.6192216508E-04  4.7914248882E+00
                      -1.2616590089E-04 -2.3460859872E-04  3.7460214688E+00
                       1.4511184347E+00 -2.3460859872E-04  3.2199867246E+00
                       1.4512047118E+00 -7.7208542265E-05  1.5940639305E+00
                      -1.2313424467E-05 -2.7705072756E-05  1.1212718606E+00
                       0.0000000000E+00  0.0000000000E+00  0.0000000000E+00
            xcart     -5.9189800000E-04 -1.0618790000E-03  9.0544808250E+00
                      -2.3841900000E-04 -4.4334600000E-04  7.0789546640E+00
                       2.7422164280E+00 -4.4334600000E-04  6.0848930610E+00
                       2.7423794680E+00 -1.4590300000E-04  3.0123442670E+00
                      -2.3269000000E-05 -5.2355000000E-05  2.1188967370E+00
                       0.0000000000E+00  0.0000000000E+00  0.0000000000E+00
             xred     -2.9549715150E-04 -1.5160979587E-04  1.2072641100E-01
                      -1.2231521554E-04 -6.4356784457E-05  9.4386062187E-02
                       3.3321600987E-01 -3.3340268187E-01  8.1131907480E-02
                       3.3329844654E-01 -3.3335987938E-01  4.0164590227E-02
                      -1.3850392298E-05 -8.1938182287E-06  2.8251956493E-02
                       0.0000000000E+00  0.0000000000E+00  0.0000000000E+00
            znucl        1.00000    7.00000    5.00000    6.00000

================================================================================


- Timing analysis has been suppressed with timopt=0



================================================================================

 Suggested references for the acknowledgment of ABINIT usage.

 The users of ABINIT have little formal obligations with respect to the ABINIT group
 (those specified in the GNU General Public License, http://www.gnu.org/copyleft/gpl.txt).
 However, it is common practice in the scientific literature,
 to acknowledge the efforts of people that have made the research possible.
 In this spirit, please find below suggested citations of work written by ABINIT developers,
 corresponding to implementations inside of ABINIT that you have used in the present run.
 Note also that it will be of great value to readers of publications presenting these results,
 to read papers enabling them to understand the theoretical formalism and details
 of the ABINIT implementation.
 For information on why they are suggested, see also http://www.abinit.org/about/?text=acknowledgments.

 [1] ABINIT : First-principles approach of materials and nanosystem properties.
 X. Gonze, B. Amadon, P.-M. Anglade, J.-M. Beuken, F. Bottin, P. Boulanger, F. Bruneval,
 D. Caliste, R. Caracas, M. Cote, T. Deutsch, L. Genovese, Ph. Ghosez, M. Giantomassi
 S. Goedecker, D.R. Hamann, P. Hermet, F. Jollet, G. Jomard, S. Leroux, M. Mancini, S. Mazevet,
 M.J.T. Oliveira, G. Onida, Y. Pouillon, T. Rangel, G.-M. Rignanese, D. Sangalli, R. Shaltaf,
 M. Torrent, M.J. Verstraete, G. Zerah, J.W. Zwanziger
 Computer Phys. Comm. 180, 2582-2615 (2009).
 Comment : the third generic paper describing the ABINIT project.
 Note that a version of this paper, that is not formatted for Computer Phys. Comm. 
 is available at http://www.abinit.org/about/ABINIT_CPC_v10.pdf .
 The licence allows the authors to put it on the Web.

 [2] A brief introduction to the ABINIT software package.
 X. Gonze, G.-M. Rignanese, M. Verstraete, J.-M. Beuken, Y. Pouillon, R. Caracas, F. Jollet,
 M. Torrent, G. Zerah, M. Mikami, Ph. Ghosez, M. Veithen, J.-Y. Raty, V. Olevano, F. Bruneval,
 L. Reining, R. Godby, G. Onida, D.R. Hamann, and D.C. Allan.
 Z. Kristallogr. 220, 558-562 (2005).
 Comment : the second generic paper describing the ABINIT project. Note that this paper
 should be cited especially if you are using the GW part of ABINIT, as several authors
 of this part are not in the list of authors of the first or third paper.
 The .pdf of the latter paper is available at http://www.abinit.org/about/zfk_0505-06_558-562.pdf.
 Note that it should not redistributed (Copyright by Oldenburg Wissenshaftverlag,
 the licence allows the authors to put it on the Web).


 And optionally :

 [3] First-principles computation of material properties : the ABINIT software project. 
 X. Gonze, J.-M. Beuken, R. Caracas, F. Detraux, M. Fuchs, G.-M. Rignanese, L. Sindic,
 M. Verstraete, G. Zerah, F. Jollet, M. Torrent, A. Roy, M. Mikami, Ph. Ghosez, J.-Y. Raty, D.C. Allan.
 Computational Materials Science 25, 478-492 (2002). http://dx.doi.org/10.1016/S0927-0256(02)00325-7
 Comment : the original paper describing the ABINIT project.

 [4] Fast radix 2, 3, 4 and 5 kernels for Fast Fourier Transformations
 on computers with overlapping multiply-add instructions.
 S. Goedecker, SIAM J. on Scientific Computing 18, 1605 (1997).
-
- Proc.   0 individual time (sec): cpu=          8.7  wall=          8.8

================================================================================

 Calculation completed.
.Delivered    6 WARNINGs and   8 COMMENTs to log file.
+Overall time at end (sec) : cpu=        105.0  wall=        105.0
