
.Version 7.0.5 of ABINIT 
.(MPI version, prepared for a x86_64_none_intel12.1 computer) 

.Copyright (C) 1998-2012 ABINIT group . 
 ABINIT comes with ABSOLUTELY NO WARRANTY.
 It is free software, and you are welcome to redistribute it
 under certain conditions (GNU General Public License,
 see ~abinit/COPYING or http://www.gnu.org/copyleft/gpl.txt).

 ABINIT is a project of the Universite Catholique de Louvain,
 Corning Inc. and other collaborators, see ~abinit/doc/developers/contributors.txt .
 Please read ~abinit/doc/users/acknowledgments.html for suggested
 acknowledgments of the ABINIT effort.
 For more information, see http://www.abinit.org .

.Starting date : Tue 21 Mar 2017.
- ( at  0h 8 )
  

 herald :  WARNING -
  The starting date is more than 3 years after the initial release
  of this version of ABINIT, namely Jan 2013.
  This version of ABINIT is not supported anymore.
  Action : please, switch to a more recent version of ABINIT.
- input  file    -> aa-ecut.in
- output file    -> aa-ecut.outD
- root for input  files -> aa-ecut_i
- root for output files -> aa-ecut_o


 DATASET    1 : space group P1 (#  1); Bravais aP (primitive triclinic)
================================================================================
 Values of the parameters that define the memory need for DATASET  1.
   intxc =         0  ionmov =         0    iscf =         7 xclevel =         1
  lmnmax =         1   lnmax =         1   mband =        10  mffmem =         1
P  mgfft =       360   mkmem =         4 mpssoang=         2     mpw =     10428
  mqgrid =     17866   natom =         6    nfft =    207360    nkpt =        38
  nloalg =         4  nspden =         1 nspinor =         1  nsppol =         1
    nsym =         1  n1xccc =         0  ntypat =         4  occopt =         1
================================================================================
P This job should need less than                      64.556 Mbytes of memory.
  Rough estimation (10% accuracy) of disk space for files :
  WF disk file :     60.467 Mbytes ; DEN or POT disk file :      1.584 Mbytes.
================================================================================

--------------------------------------------------------------------------------
------------- Echo of variables that govern the present computation ------------
--------------------------------------------------------------------------------
-
- outvars: echo of selected default values                                      
-   accesswff0 =  0 , fftalg0 =112 , wfoptalg0 =  0
-
- outvars: echo of global parameters not present in the input file              
-  max_nthreads =    0
-
 -outvars: echo values of preprocessed input variables --------
            acell      4.7500000000E+00  4.7500000000E+00  7.5000000000E+01 Bohr
              amu      1.00794000E+00  1.40067400E+01  1.08110000E+01
                       1.20110000E+01
           diemac      1.20000000E+01
             ecut      2.80000000E+01 Hartree
           getwfk          -1
           istwfk        0    0    0    0    0    0    0    0    0    0
                         0    0    0    0    0    0    0    0    0    0
                         0    0    0    0    0    0    0    3    0    0
                         6    0    0    0    5    0    8    0
           jdtset        1
              kpt     -1.66666667E-01 -3.33333333E-01  0.00000000E+00
                      -3.33333333E-01 -1.66666667E-01  0.00000000E+00
                      -1.66666667E-01 -1.66666667E-01  2.50000000E-01
                      -1.66666667E-01  3.33333333E-01  0.00000000E+00
                      -3.33333333E-01  5.00000000E-01  0.00000000E+00
                      -1.66666667E-01  5.00000000E-01  2.50000000E-01
                       5.00000000E-01 -3.33333333E-01  0.00000000E+00
                      -3.33333333E-01 -3.33333333E-01  2.50000000E-01
                      -1.66666667E-01 -3.33333333E-01  5.00000000E-01
                       3.33333333E-01 -1.66666667E-01  0.00000000E+00
                       5.00000000E-01 -1.66666667E-01  2.50000000E-01
                      -3.33333333E-01 -1.66666667E-01  5.00000000E-01
                      -1.66666667E-01 -1.66666667E-01 -2.50000000E-01
                      -1.66666667E-01  0.00000000E+00  0.00000000E+00
                      -1.66666667E-01  1.66666667E-01  2.50000000E-01
                      -3.33333333E-01  3.33333333E-01  2.50000000E-01
                      -1.66666667E-01  3.33333333E-01  5.00000000E-01
                       5.00000000E-01  5.00000000E-01  2.50000000E-01
                      -3.33333333E-01  5.00000000E-01  5.00000000E-01
                      -1.66666667E-01  5.00000000E-01 -2.50000000E-01
                       3.33333333E-01 -3.33333333E-01  2.50000000E-01
                       5.00000000E-01 -3.33333333E-01  5.00000000E-01
                      -3.33333333E-01 -3.33333333E-01 -2.50000000E-01
                       0.00000000E+00 -1.66666667E-01  0.00000000E+00
                       1.66666667E-01 -1.66666667E-01  2.50000000E-01
                       3.33333333E-01 -1.66666667E-01  5.00000000E-01
                       5.00000000E-01 -1.66666667E-01 -2.50000000E-01
                       5.00000000E-01  0.00000000E+00  0.00000000E+00
                      -3.33333333E-01  0.00000000E+00  2.50000000E-01
                      -1.66666667E-01  0.00000000E+00  5.00000000E-01
                       0.00000000E+00  5.00000000E-01  0.00000000E+00
                       0.00000000E+00 -3.33333333E-01  2.50000000E-01
                       0.00000000E+00 -1.66666667E-01  5.00000000E-01
                       3.33333333E-01  0.00000000E+00  2.50000000E-01
                       5.00000000E-01  0.00000000E+00  5.00000000E-01
                       0.00000000E+00  3.33333333E-01  2.50000000E-01
                       0.00000000E+00  5.00000000E-01  5.00000000E-01
                       0.00000000E+00  0.00000000E+00  2.50000000E-01
         kptrlatt        6    0    0      0    6    0     -3   -3    2
          kptrlen      2.85000000E+01
P           mkmem           4
            natom           6
            nband          10
           ndtset           1
            ngfft          24      24     360
             nkpt          38
            npkpt          12
            nstep          10
             nsym           1
           ntypat           4
              occ      2.000000  2.000000  2.000000  2.000000  2.000000  2.000000
                       2.000000  2.000000  2.000000  0.000000
        optforces           1
            rprim      8.6602540378E-01  5.0000000000E-01  0.0000000000E+00
                      -8.6602540378E-01  5.0000000000E-01  0.0000000000E+00
                       0.0000000000E+00  0.0000000000E+00  1.0000000000E+00
           shiftk      0.00000000E+00  0.00000000E+00  5.00000000E-01
          spgroup           1
           toldfe      1.00000000E-06 Hartree
            typat      1  2  3  4  4  1
              wtk        0.02778    0.02778    0.02778    0.02778    0.02778    0.02778
                         0.02778    0.02778    0.02778    0.02778    0.02778    0.02778
                         0.02778    0.02778    0.02778    0.02778    0.02778    0.02778
                         0.02778    0.02778    0.02778    0.02778    0.02778    0.02778
                         0.02778    0.02778    0.02778    0.01389    0.02778    0.02778
                         0.01389    0.02778    0.02778    0.02778    0.01389    0.02778
                         0.01389    0.02778
           xangst     -3.1321893141E-04 -5.6192216508E-04  4.7914248882E+00
                      -1.2616590089E-04 -2.3460859872E-04  3.7460214688E+00
                       1.4511184347E+00 -2.3460859872E-04  3.2199867246E+00
                       1.4512047118E+00 -7.7208542265E-05  1.5940639305E+00
                      -1.2313424467E-05 -2.7705072756E-05  1.1212718606E+00
                       0.0000000000E+00  0.0000000000E+00  0.0000000000E+00
            xcart     -5.9189800000E-04 -1.0618790000E-03  9.0544808250E+00
                      -2.3841900000E-04 -4.4334600000E-04  7.0789546640E+00
                       2.7422164280E+00 -4.4334600000E-04  6.0848930610E+00
                       2.7423794680E+00 -1.4590300000E-04  3.0123442670E+00
                      -2.3269000000E-05 -5.2355000000E-05  2.1188967370E+00
                       0.0000000000E+00  0.0000000000E+00  0.0000000000E+00
             xred     -2.9549715150E-04 -1.5160979587E-04  1.2072641100E-01
                      -1.2231521554E-04 -6.4356784457E-05  9.4386062187E-02
                       3.3321600987E-01 -3.3340268187E-01  8.1131907480E-02
                       3.3329844654E-01 -3.3335987938E-01  4.0164590227E-02
                      -1.3850392298E-05 -8.1938182287E-06  2.8251956493E-02
                       0.0000000000E+00  0.0000000000E+00  0.0000000000E+00
            znucl        1.00000    7.00000    5.00000    6.00000

================================================================================

 chkinp: Checking input parameters for consistency, jdtset=   1.

================================================================================
== DATASET  1 ==================================================================
-   nproc =   12

 Exchange-correlation functional for the present dataset will be:
  LDA: new Teter (4/93) with spin-polarized option - ixc=1
 Citation for XC functional:
  S. Goedecker, M. Teter, J. Huetter, PRB 54, 1703 (1996)
 
 Real(R)+Recip(G) space primitive vectors, cartesian coordinates (Bohr,Bohr^-1):
 R(1)=  4.1136207  2.3750000  0.0000000  G(1)=  0.1215474  0.2105263  0.0000000
 R(2)= -4.1136207  2.3750000  0.0000000  G(2)= -0.1215474  0.2105263  0.0000000
 R(3)=  0.0000000  0.0000000 75.0000000  G(3)=  0.0000000  0.0000000  0.0133333
 Unit cell volume ucvol=  1.4654774E+03 bohr^3
 Angles (23,13,12)=  9.00000000E+01  9.00000000E+01  1.20000000E+02 degrees

 getcut: wavevector=  0.0000  0.0000  0.0000  ngfft=  24  24 360
         ecut(hartree)=     28.000   => boxcut(ratio)=   2.01510

--- Pseudopotential description ------------------------------------------------
- pspini: atom type   1  psp file is /home/reinaldo/tiniba/pseudopotentials/hgh/1h.1.hgh
- pspatm: opening atomic psp file    /home/reinaldo/tiniba/pseudopotentials/hgh/1h.1.hgh
- Hartwigsen-Goedecker-Hutter psp for H,  from PRB58, 3641 (1998)
-  1.00000   1.00000     10605                znucl, zion, pspdat
    3    1    0    0      2001   0.00000      pspcod,pspxc,lmax,lloc,mmax,r2well
 rloc=   0.2000000
 cc1 =  -4.1802370; cc2 =   0.7250750; cc3 =   0.0000000; cc4 =   0.0000000
 rrs =   0.0000000; h11s=   0.0000000; h22s=   0.0000000; h33s=   0.0000000
-  Local part computed in reciprocal space.

 pspatm : COMMENT -
  the projectors are not normalized,
  so that the KB energies are not consistent with 
  definition in PRB44, 8503 (1991). 
  However, this does not influence the results obtained hereafter.
 pspatm: epsatm=   -0.00129784
         --- l  ekb(1:nproj) -->
 pspatm: atomic psp has been read  and splines computed

- pspini: atom type   2  psp file is /home/reinaldo/tiniba/pseudopotentials/hgh/7n.5.hgh
- pspatm: opening atomic psp file    /home/reinaldo/tiniba/pseudopotentials/hgh/7n.5.hgh
- Hartwigsen-Goedecker-Hutter psp for N,  from PRB58, 3641 (1998)
-  7.00000   5.00000     10605                znucl, zion, pspdat
    3    1    1    0      2001   0.00000      pspcod,pspxc,lmax,lloc,mmax,r2well
 rloc=   0.2891790
 cc1 = -12.2348200; cc2 =   1.7664070; cc3 =   0.0000000; cc4 =   0.0000000
 rrs =   0.2566050; h11s=  13.5522430; h22s=   0.0000000; h33s=   0.0000000
 rrp =   0.2701340; h11p=   0.0000000; h22p=   0.0000000; h33p=   0.0000000
                    k11p=   0.0031310; k22p=   0.0000000; k33p=   0.0000000
-  Local part computed in reciprocal space.

 pspatm : COMMENT -
  the projectors are not normalized,
  so that the KB energies are not consistent with 
  definition in PRB44, 8503 (1991). 
  However, this does not influence the results obtained hereafter.
 pspatm: epsatm=   -0.01437983
         --- l  ekb(1:nproj) -->
             0    0.811730
 pspatm: atomic psp has been read  and splines computed

- pspini: atom type   3  psp file is /home/reinaldo/tiniba/pseudopotentials/hgh/5b.3.hgh
- pspatm: opening atomic psp file    /home/reinaldo/tiniba/pseudopotentials/hgh/5b.3.hgh
- Hartwigsen-Goedecker-Hutter psp for B,  from PRB58, 3641 (1998)
-  5.00000   3.00000     10605                znucl, zion, pspdat
    3    1    1    0      2001   0.00000      pspcod,pspxc,lmax,lloc,mmax,r2well
 rloc=   0.4339300
 cc1 =  -5.5786420; cc2 =   0.8042510; cc3 =   0.0000000; cc4 =   0.0000000
 rrs =   0.3738430; h11s=   6.2339280; h22s=   0.0000000; h33s=   0.0000000
 rrp =   0.3603930; h11p=   0.0000000; h22p=   0.0000000; h33p=   0.0000000
                    k11p=   0.0008780; k22p=   0.0000000; k33p=   0.0000000
-  Local part computed in reciprocal space.

 pspatm : COMMENT -
  the projectors are not normalized,
  so that the KB energies are not consistent with 
  definition in PRB44, 8503 (1991). 
  However, this does not influence the results obtained hereafter.
 pspatm: epsatm=   -0.52475100
         --- l  ekb(1:nproj) -->
             0    1.154608
 pspatm: atomic psp has been read  and splines computed

- pspini: atom type   4  psp file is /home/reinaldo/tiniba/pseudopotentials/hgh/6c.4.hgh
- pspatm: opening atomic psp file    /home/reinaldo/tiniba/pseudopotentials/hgh/6c.4.hgh
- Hartwigsen-Goedecker-Hutter psp for C,  from PRB58, 3641 (1998)
-  6.00000   4.00000     10605                znucl, zion, pspdat
    3    1    1    0      2001   0.00000      pspcod,pspxc,lmax,lloc,mmax,r2well
 rloc=   0.3488300
 cc1 =  -8.5137710; cc2 =   1.2284320; cc3 =   0.0000000; cc4 =   0.0000000
 rrs =   0.3045530; h11s=   9.5228420; h22s=   0.0000000; h33s=   0.0000000
 rrp =   0.2326770; h11p=   0.0000000; h22p=   0.0000000; h33p=   0.0000000
                    k11p=   0.0041040; k22p=   0.0000000; k33p=   0.0000000
-  Local part computed in reciprocal space.

 pspatm : COMMENT -
  the projectors are not normalized,
  so that the KB energies are not consistent with 
  definition in PRB44, 8503 (1991). 
  However, this does not influence the results obtained hereafter.
 pspatm: epsatm=   -0.16969744
         --- l  ekb(1:nproj) -->
             0    0.953587
 pspatm: atomic psp has been read  and splines computed

  -1.58601851E+01                                ecore*ucvol(ha*bohr**3)
--------------------------------------------------------------------------------

P newkpt: treating     10 bands with npw=   10345 for ikpt=   1 by node    0
P newkpt: treating     10 bands with npw=   10345 for ikpt=   2 by node    0
P newkpt: treating     10 bands with npw=   10397 for ikpt=   3 by node    0
P newkpt: treating     10 bands with npw=   10399 for ikpt=   4 by node    0
P newkpt: treating     10 bands with npw=   10345 for ikpt=   5 by node    1
P newkpt: treating     10 bands with npw=   10344 for ikpt=   6 by node    1
P newkpt: treating     10 bands with npw=   10345 for ikpt=   7 by node    1
P newkpt: treating     10 bands with npw=   10302 for ikpt=   8 by node    1
P newkpt: treating     10 bands with npw=   10334 for ikpt=   9 by node    2
P newkpt: treating     10 bands with npw=   10399 for ikpt=  10 by node    2
P newkpt: treating     10 bands with npw=   10344 for ikpt=  11 by node    2
P newkpt: treating     10 bands with npw=   10334 for ikpt=  12 by node    2
P newkpt: treating     10 bands with npw=   10397 for ikpt=  13 by node    3
P newkpt: treating     10 bands with npw=   10418 for ikpt=  14 by node    3
P newkpt: treating     10 bands with npw=   10417 for ikpt=  15 by node    3
P newkpt: treating     10 bands with npw=   10348 for ikpt=  16 by node    3
P newkpt: treating     10 bands with npw=   10372 for ikpt=  17 by node    4
P newkpt: treating     10 bands with npw=   10378 for ikpt=  18 by node    4
P newkpt: treating     10 bands with npw=   10334 for ikpt=  19 by node    4
P newkpt: treating     10 bands with npw=   10344 for ikpt=  20 by node    4
P newkpt: treating     10 bands with npw=   10348 for ikpt=  21 by node    5
P newkpt: treating     10 bands with npw=   10334 for ikpt=  22 by node    5
P newkpt: treating     10 bands with npw=   10302 for ikpt=  23 by node    5
P newkpt: treating     10 bands with npw=   10418 for ikpt=  24 by node    5
P newkpt: treating     10 bands with npw=   10417 for ikpt=  25 by node    6
P newkpt: treating     10 bands with npw=   10372 for ikpt=  26 by node    6
P newkpt: treating     10 bands with npw=   10344 for ikpt=  27 by node    6
P newkpt: treating     10 bands with npw=    5186 for ikpt=  28 by node    6
P newkpt: treating     10 bands with npw=   10348 for ikpt=  29 by node    7
P newkpt: treating     10 bands with npw=   10428 for ikpt=  30 by node    7
P newkpt: treating     10 bands with npw=    5186 for ikpt=  31 by node    7
P newkpt: treating     10 bands with npw=   10348 for ikpt=  32 by node    7
P newkpt: treating     10 bands with npw=   10428 for ikpt=  33 by node    8
P newkpt: treating     10 bands with npw=   10348 for ikpt=  34 by node    8
P newkpt: treating     10 bands with npw=    5190 for ikpt=  35 by node    8
P newkpt: treating     10 bands with npw=   10348 for ikpt=  36 by node    8
P newkpt: treating     10 bands with npw=    5190 for ikpt=  37 by node    9
P newkpt: treating     10 bands with npw=   10421 for ikpt=  38 by node    9
 
 setup2: Arith. and geom. avg. npw (full set) are   10366.583   10366.525

================================================================================

     iter   Etot(hartree)      deltaE(h)  residm     vres2    diffor    maxfor
 ETOT  1  -25.000944178433    -2.500E+01 1.553E-01 1.507E+04 1.109E-01 1.109E-01
 ETOT  2  -25.258818176009    -2.579E-01 8.899E-02 5.606E+03 1.195E-01 6.348E-02
 ETOT  3  -25.289240275035    -3.042E-02 1.173E-02 2.598E+03 5.410E-02 4.364E-02
 ETOT  4  -25.291414763990    -2.174E-03 3.308E-03 1.306E+03 6.636E-02 3.817E-02
 ETOT  5  -25.300194706118    -8.780E-03 1.633E-03 2.674E+02 4.638E-02 8.214E-03
 ETOT  6  -25.300355963919    -1.613E-04 1.430E-04 2.186E+02 9.397E-03 1.183E-03
 ETOT  7  -25.300766770599    -4.108E-04 6.707E-05 5.179E+01 7.416E-03 6.872E-03
 ETOT  8  -25.300705350099     6.142E-05 1.017E-05 4.588E+01 3.240E-03 5.520E-03
 ETOT  9  -25.300781836134    -7.649E-05 2.690E-06 2.201E+01 1.280E-03 6.800E-03
 ETOT 10  -25.300795661783    -1.383E-05 6.440E-06 3.455E+00 2.287E-03 9.087E-03

 Cartesian components of stress tensor (hartree/bohr^3)
  sigma(1 1)=  1.88100379E-04  sigma(3 2)= -1.09973977E-07
  sigma(2 2)=  1.88097702E-04  sigma(3 1)= -6.28517499E-08
  sigma(3 3)=  1.91753961E-04  sigma(2 1)= -4.09379361E-09
 

 scprqt:  WARNING -
  nstep=   10 was not enough SCF cycles to converge;
  maximum energy difference=  1.383E-05 exceeds toldfe=  1.000E-06

================================================================================

 ----iterations are completed or convergence reached----

 Mean square residual over all n,k,spin=   4.9187E-07; max=  6.4398E-06
  -0.1667 -0.3333  0.0000    1  3.08374E-06 kpt; spin; max resid(k); each band:
  2.83E-07 1.27E-07 8.68E-08 1.73E-07 4.68E-07 5.18E-08 1.03E-07 1.65E-07
  9.37E-08 3.08E-06
  -0.3333 -0.1667  0.0000    1  3.08787E-06 kpt; spin; max resid(k); each band:
  2.83E-07 1.26E-07 8.83E-08 1.84E-07 4.65E-07 5.05E-08 1.03E-07 1.61E-07
  9.32E-08 3.09E-06
  -0.1667 -0.1667  0.2500    1  1.52957E-06 kpt; spin; max resid(k); each band:
  2.73E-07 1.56E-07 4.59E-07 1.63E-07 2.33E-07 1.23E-07 1.19E-07 6.09E-08
  3.08E-07 1.53E-06
  -0.1667  0.3333  0.0000    1  1.52819E-06 kpt; spin; max resid(k); each band:
  2.72E-07 1.56E-07 4.59E-07 1.61E-07 2.32E-07 1.20E-07 1.17E-07 6.40E-08
  3.12E-07 1.53E-06
  -0.3333  0.5000  0.0000    1  3.08311E-06 kpt; spin; max resid(k); each band:
  2.82E-07 1.27E-07 8.44E-08 1.76E-07 4.65E-07 5.27E-08 1.05E-07 1.61E-07
  9.59E-08 3.08E-06
  -0.1667  0.5000  0.2500    1  3.08161E-06 kpt; spin; max resid(k); each band:
  2.82E-07 1.28E-07 8.52E-08 1.69E-07 4.69E-07 5.26E-08 1.04E-07 1.63E-07
  9.61E-08 3.08E-06
   0.5000 -0.3333  0.0000    1  3.08519E-06 kpt; spin; max resid(k); each band:
  2.82E-07 1.26E-07 8.62E-08 1.80E-07 4.66E-07 5.24E-08 1.01E-07 1.66E-07
  9.07E-08 3.09E-06
  -0.3333 -0.3333  0.2500    1  2.92766E-07 kpt; spin; max resid(k); each band:
  2.69E-07 1.18E-07 7.04E-08 4.23E-08 4.70E-08 2.93E-07 7.17E-08 6.78E-08
  7.00E-08 1.76E-07
  -0.1667 -0.3333  0.5000    1  3.07641E-06 kpt; spin; max resid(k); each band:
  2.83E-07 1.27E-07 8.68E-08 1.72E-07 4.68E-07 5.19E-08 1.03E-07 1.65E-07
  9.37E-08 3.08E-06
   0.3333 -0.1667  0.0000    1  1.53023E-06 kpt; spin; max resid(k); each band:
  2.72E-07 1.55E-07 4.59E-07 1.64E-07 2.34E-07 1.23E-07 1.23E-07 6.18E-08
  3.03E-07 1.53E-06
   0.5000 -0.1667  0.2500    1  3.04911E-06 kpt; spin; max resid(k); each band:
  2.82E-07 1.25E-07 8.85E-08 1.85E-07 4.67E-07 5.10E-08 9.99E-08 1.63E-07
  9.04E-08 3.05E-06
  -0.3333 -0.1667  0.5000    1  3.08272E-06 kpt; spin; max resid(k); each band:
  2.83E-07 1.26E-07 8.83E-08 1.84E-07 4.65E-07 5.06E-08 1.03E-07 1.61E-07
  9.32E-08 3.08E-06
  -0.1667 -0.1667 -0.2500    1  1.52747E-06 kpt; spin; max resid(k); each band:
  2.73E-07 1.56E-07 4.59E-07 1.63E-07 2.33E-07 1.23E-07 1.19E-07 6.09E-08
  3.08E-07 1.53E-06
  -0.1667  0.0000  0.0000    1  3.52994E-06 kpt; spin; max resid(k); each band:
  2.74E-07 1.69E-07 4.72E-07 6.01E-07 3.95E-08 7.94E-09 9.86E-08 1.43E-06
  1.57E-08 3.53E-06
  -0.1667  0.1667  0.2500    1  3.53181E-06 kpt; spin; max resid(k); each band:
  2.74E-07 1.72E-07 4.72E-07 6.01E-07 3.83E-08 8.25E-09 9.65E-08 1.44E-06
  1.77E-08 3.53E-06
  -0.3333  0.3333  0.2500    1  1.65135E-06 kpt; spin; max resid(k); each band:
  2.74E-07 1.44E-07 3.37E-07 2.48E-07 1.15E-07 3.70E-07 1.15E-08 1.68E-08
  1.46E-07 1.65E-06
  -0.1667  0.3333  0.5000    1  1.52688E-06 kpt; spin; max resid(k); each band:
  2.72E-07 1.56E-07 4.59E-07 1.61E-07 2.32E-07 1.20E-07 1.17E-07 6.41E-08
  3.12E-07 1.53E-06
   0.5000  0.5000  0.2500    1  6.41649E-06 kpt; spin; max resid(k); each band:
  2.88E-07 1.19E-07 1.19E-07 1.24E-07 3.19E-07 1.30E-08 1.38E-07 1.77E-08
  9.39E-08 6.42E-06
  -0.3333  0.5000  0.5000    1  3.10487E-06 kpt; spin; max resid(k); each band:
  2.82E-07 1.27E-07 8.44E-08 1.76E-07 4.65E-07 5.27E-08 1.05E-07 1.61E-07
  9.59E-08 3.10E-06
  -0.1667  0.5000 -0.2500    1  3.09147E-06 kpt; spin; max resid(k); each band:
  2.82E-07 1.28E-07 8.53E-08 1.70E-07 4.69E-07 5.26E-08 1.04E-07 1.63E-07
  9.61E-08 3.09E-06
   0.3333 -0.3333  0.2500    1  1.64113E-06 kpt; spin; max resid(k); each band:
  2.74E-07 1.44E-07 3.37E-07 2.48E-07 1.15E-07 3.70E-07 1.15E-08 1.68E-08
  1.46E-07 1.64E-06
   0.5000 -0.3333  0.5000    1  3.07582E-06 kpt; spin; max resid(k); each band:
  2.82E-07 1.26E-07 8.62E-08 1.80E-07 4.66E-07 5.25E-08 1.01E-07 1.66E-07
  9.07E-08 3.08E-06
  -0.3333 -0.3333 -0.2500    1  2.92769E-07 kpt; spin; max resid(k); each band:
  2.69E-07 1.18E-07 7.04E-08 4.23E-08 4.70E-08 2.93E-07 7.17E-08 6.78E-08
  7.00E-08 1.77E-07
   0.0000 -0.1667  0.0000    1  3.54686E-06 kpt; spin; max resid(k); each band:
  2.74E-07 1.70E-07 4.72E-07 6.01E-07 3.87E-08 8.58E-09 9.61E-08 1.44E-06
  1.70E-08 3.55E-06
   0.1667 -0.1667  0.2500    1  3.55134E-06 kpt; spin; max resid(k); each band:
  2.74E-07 1.72E-07 4.72E-07 6.01E-07 3.83E-08 8.25E-09 9.65E-08 1.44E-06
  1.79E-08 3.55E-06
   0.3333 -0.1667  0.5000    1  1.53015E-06 kpt; spin; max resid(k); each band:
  2.72E-07 1.55E-07 4.59E-07 1.63E-07 2.35E-07 1.23E-07 1.23E-07 6.18E-08
  3.04E-07 1.53E-06
   0.5000 -0.1667 -0.2500    1  3.07490E-06 kpt; spin; max resid(k); each band:
  2.82E-07 1.25E-07 8.85E-08 1.85E-07 4.68E-07 5.10E-08 1.00E-07 1.63E-07
  9.03E-08 3.07E-06
   0.5000  0.0000  0.0000    1  6.40175E-06 kpt; spin; max resid(k); each band:
  2.89E-07 1.16E-07 1.27E-07 1.36E-07 3.18E-07 1.23E-08 1.40E-07 1.56E-08
  9.22E-08 6.40E-06
  -0.3333  0.0000  0.2500    1  1.64035E-06 kpt; spin; max resid(k); each band:
  2.74E-07 1.43E-07 3.34E-07 2.51E-07 1.19E-07 3.72E-07 1.09E-08 1.47E-08
  1.45E-07 1.64E-06
  -0.1667  0.0000  0.5000    1  3.54023E-06 kpt; spin; max resid(k); each band:
  2.74E-07 1.72E-07 4.72E-07 6.01E-07 3.95E-08 7.93E-09 9.84E-08 1.43E-06
  1.57E-08 3.54E-06
   0.0000  0.5000  0.0000    1  6.40909E-06 kpt; spin; max resid(k); each band:
  2.88E-07 1.25E-07 1.17E-07 1.19E-07 3.21E-07 1.31E-08 1.38E-07 1.65E-08
  9.60E-08 6.41E-06
   0.0000 -0.3333  0.2500    1  1.63516E-06 kpt; spin; max resid(k); each band:
  2.75E-07 1.45E-07 3.36E-07 2.47E-07 1.14E-07 3.69E-07 1.16E-08 1.57E-08
  1.47E-07 1.64E-06
   0.0000 -0.1667  0.5000    1  3.56251E-06 kpt; spin; max resid(k); each band:
  2.74E-07 1.72E-07 4.72E-07 6.01E-07 3.86E-08 8.57E-09 9.59E-08 1.44E-06
  1.71E-08 3.56E-06
   0.3333  0.0000  0.2500    1  1.63844E-06 kpt; spin; max resid(k); each band:
  2.74E-07 1.44E-07 3.34E-07 2.51E-07 1.19E-07 3.72E-07 1.09E-08 1.47E-08
  1.45E-07 1.64E-06
   0.5000  0.0000  0.5000    1  6.38403E-06 kpt; spin; max resid(k); each band:
  2.89E-07 1.16E-07 1.27E-07 1.36E-07 3.18E-07 1.23E-08 1.40E-07 1.56E-08
  9.22E-08 6.38E-06
   0.0000  0.3333  0.2500    1  1.64946E-06 kpt; spin; max resid(k); each band:
  2.75E-07 1.46E-07 3.36E-07 2.47E-07 1.14E-07 3.69E-07 1.16E-08 1.57E-08
  1.47E-07 1.65E-06
   0.0000  0.5000  0.5000    1  6.43984E-06 kpt; spin; max resid(k); each band:
  2.88E-07 1.25E-07 1.17E-07 1.19E-07 3.21E-07 1.31E-08 1.38E-07 1.65E-08
  9.60E-08 6.44E-06
   0.0000  0.0000  0.2500    1  6.04053E-06 kpt; spin; max resid(k); each band:
  2.76E-07 1.79E-07 4.68E-07 7.13E-07 6.90E-09 6.38E-09 2.58E-06 2.17E-08
  2.21E-08 6.04E-06
 reduced coordinates (array xred) for    6 atoms
      -0.000295497152     -0.000151609796      0.120726411000
      -0.000122315216     -0.000064356784      0.094386062187
       0.333216009872     -0.333402681872      0.081131907480
       0.333298446543     -0.333359879385      0.040164590227
      -0.000013850392     -0.000008193818      0.028251956493
       0.000000000000      0.000000000000      0.000000000000
 rms dE/dt=  1.9732E-01; max dE/dt=  3.3265E-01; dE/dt below (all hartree)
    1      -0.000107093861     -0.000001846905     -0.682712311291
    2       0.000066227332     -0.000012622494      0.332654862952
    3      -0.000053928327     -0.000018412027      0.145706500897
    4      -0.000010326870     -0.000015634528      0.058997838389
    5       0.000095876714      0.000027672957     -0.142752901808
    6       0.000021644124      0.000003810283      0.281001094577
 
 cartesian coordinates (angstrom) at end:
    1     -0.00031321893141    -0.00056192216508     4.79142488820518
    2     -0.00012616590089    -0.00023460859872     3.74602146883068
    3      1.45111843471868    -0.00023460859872     3.21998672458864
    4      1.45120471177077    -0.00007720854226     1.59406393052315
    5     -0.00001231342447    -0.00002770507276     1.12127186057612
    6      0.00000000000000     0.00000000000000     0.00000000000000

 cartesian forces (hartree/bohr) at end:
    1      0.00001338872359     0.00002277231561     0.00908704211436
    2     -0.00000898776624    -0.00001144781155    -0.00445118687555
    3      0.00000491314196     0.00001506696559    -0.00195854204814
    4     -0.00000004890502     0.00000530297504    -0.00080242654804
    5     -0.00000769376393    -0.00002617303966     0.00188758332126
    6     -0.00000157143034    -0.00000552140504    -0.00376246996388
 frms,max,avg= 2.6308880E-03 9.0870421E-03  -5.962E-07  1.626E-07  1.579E-05 h/b

 cartesian forces (eV/Angstrom) at end:
    1      0.00068847579028     0.00117099945218     0.46727445383492
    2     -0.00046216948373    -0.00058867008878    -0.22888921279494
    3      0.00025264389620     0.00077477445691    -0.10071227296410
    4     -0.00000251479724     0.00027268991758    -0.04126242866063
    5     -0.00039562921509    -0.00134587169919     0.09706342882620
    6     -0.00008080619042    -0.00028392203870    -0.19347396824144
 frms,max,avg= 1.3528569E-01 4.6727445E-01  -3.066E-05  8.360E-06  8.119E-04 e/A
 length scales=  4.750000000000  4.750000000000 75.000000000000 bohr
              =  2.513591740802  2.513591740802 39.688290644250 angstroms
 prteigrs : about to open file aa-ecut_o_DS1_EIG
 Fermi (or HOMO) energy (hartree) =  -0.06707   Average Vxc (hartree)=  -0.08332
 Eigenvalues (hartree) for nkpt=  38  k points:
 kpt#   1, nband= 10, wtk=  0.02778, kpt= -0.1667 -0.3333  0.0000 (reduced coord)
  -0.71057  -0.55570  -0.44526  -0.39884  -0.36923  -0.31652  -0.25975  -0.23599
  -0.15753   0.11352
 kpt#   2, nband= 10, wtk=  0.02778, kpt= -0.3333 -0.1667  0.0000 (reduced coord)
  -0.71057  -0.55571  -0.44525  -0.39882  -0.36925  -0.31652  -0.25976  -0.23600
  -0.15751   0.11354
 kpt#   3, nband= 10, wtk=  0.02778, kpt= -0.1667 -0.1667  0.2500 (reduced coord)
  -0.76830  -0.64375  -0.43252  -0.33260  -0.31042  -0.26000  -0.24719  -0.19028
  -0.11742   0.02372
 kpt#   4, nband= 10, wtk=  0.02778, kpt= -0.1667  0.3333  0.0000 (reduced coord)
  -0.76831  -0.64375  -0.43253  -0.33257  -0.31044  -0.26000  -0.24720  -0.19025
  -0.11742   0.02372
 kpt#   5, nband= 10, wtk=  0.02778, kpt= -0.3333  0.5000  0.0000 (reduced coord)
  -0.71057  -0.55570  -0.44525  -0.39883  -0.36924  -0.31652  -0.25975  -0.23599
  -0.15753   0.11353
 kpt#   6, nband= 10, wtk=  0.02778, kpt= -0.1667  0.5000  0.2500 (reduced coord)
  -0.71057  -0.55570  -0.44525  -0.39883  -0.36922  -0.31650  -0.25976  -0.23600
  -0.15755   0.11353
 kpt#   7, nband= 10, wtk=  0.02778, kpt=  0.5000 -0.3333  0.0000 (reduced coord)
  -0.71057  -0.55570  -0.44525  -0.39883  -0.36923  -0.31652  -0.25976  -0.23600
  -0.15752   0.11352
 kpt#   8, nband= 10, wtk=  0.02778, kpt= -0.3333 -0.3333  0.2500 (reduced coord)
  -0.68559  -0.47141  -0.46987  -0.41284  -0.39512  -0.34980  -0.33660  -0.20833
  -0.18721   0.13460
 kpt#   9, nband= 10, wtk=  0.02778, kpt= -0.1667 -0.3333  0.5000 (reduced coord)
  -0.71055  -0.55569  -0.44525  -0.39882  -0.36917  -0.31649  -0.25974  -0.23598
  -0.15751   0.11354
 kpt#  10, nband= 10, wtk=  0.02778, kpt=  0.3333 -0.1667  0.0000 (reduced coord)
  -0.76831  -0.64375  -0.43253  -0.33257  -0.31043  -0.26001  -0.24718  -0.19028
  -0.11742   0.02371
 kpt#  11, nband= 10, wtk=  0.02778, kpt=  0.5000 -0.1667  0.2500 (reduced coord)
  -0.71058  -0.55569  -0.44524  -0.39880  -0.36923  -0.31651  -0.25977  -0.23601
  -0.15753   0.11354
 kpt#  12, nband= 10, wtk=  0.02778, kpt= -0.3333 -0.1667  0.5000 (reduced coord)
  -0.71055  -0.55569  -0.44524  -0.39880  -0.36919  -0.31649  -0.25975  -0.23599
  -0.15750   0.11355
 kpt#  13, nband= 10, wtk=  0.02778, kpt= -0.1667 -0.1667 -0.2500 (reduced coord)
  -0.76830  -0.64375  -0.43252  -0.33260  -0.31042  -0.26000  -0.24719  -0.19028
  -0.11742   0.02372
 kpt#  14, nband= 10, wtk=  0.02778, kpt= -0.1667  0.0000  0.0000 (reduced coord)
  -0.80739  -0.69098  -0.46957  -0.33255  -0.24232  -0.18768  -0.16236  -0.11927
  -0.10645  -0.01871
 kpt#  15, nband= 10, wtk=  0.02778, kpt= -0.1667  0.1667  0.2500 (reduced coord)
  -0.80739  -0.69097  -0.46956  -0.33254  -0.24229  -0.18770  -0.16236  -0.11927
  -0.10646  -0.01870
 kpt#  16, nband= 10, wtk=  0.02778, kpt= -0.3333  0.3333  0.2500 (reduced coord)
  -0.75116  -0.62081  -0.42177  -0.38611  -0.33596  -0.27608  -0.23667  -0.16173
  -0.13054   0.04417
 kpt#  17, nband= 10, wtk=  0.02778, kpt= -0.1667  0.3333  0.5000 (reduced coord)
  -0.76826  -0.64373  -0.43243  -0.33253  -0.31037  -0.25995  -0.24717  -0.19024
  -0.11735   0.02376
 kpt#  18, nband= 10, wtk=  0.02778, kpt=  0.5000  0.5000  0.2500 (reduced coord)
  -0.70676  -0.53322  -0.49409  -0.43948  -0.36953  -0.25659  -0.24617  -0.18336
  -0.17291   0.12615
 kpt#  19, nband= 10, wtk=  0.02778, kpt= -0.3333  0.5000  0.5000 (reduced coord)
  -0.71055  -0.55569  -0.44524  -0.39881  -0.36918  -0.31649  -0.25973  -0.23598
  -0.15751   0.11354
 kpt#  20, nband= 10, wtk=  0.02778, kpt= -0.1667  0.5000 -0.2500 (reduced coord)
  -0.71058  -0.55569  -0.44525  -0.39883  -0.36922  -0.31651  -0.25975  -0.23599
  -0.15755   0.11353
 kpt#  21, nband= 10, wtk=  0.02778, kpt=  0.3333 -0.3333  0.2500 (reduced coord)
  -0.75116  -0.62080  -0.42178  -0.38611  -0.33595  -0.27607  -0.23667  -0.16173
  -0.13054   0.04417
 kpt#  22, nband= 10, wtk=  0.02778, kpt=  0.5000 -0.3333  0.5000 (reduced coord)
  -0.71055  -0.55569  -0.44524  -0.39881  -0.36917  -0.31649  -0.25974  -0.23599
  -0.15751   0.11354
 kpt#  23, nband= 10, wtk=  0.02778, kpt= -0.3333 -0.3333 -0.2500 (reduced coord)
  -0.68559  -0.47141  -0.46987  -0.41284  -0.39512  -0.34980  -0.33660  -0.20833
  -0.18721   0.13460
 kpt#  24, nband= 10, wtk=  0.02778, kpt=  0.0000 -0.1667  0.0000 (reduced coord)
  -0.80739  -0.69098  -0.46957  -0.33255  -0.24232  -0.18768  -0.16238  -0.11928
  -0.10642  -0.01871
 kpt#  25, nband= 10, wtk=  0.02778, kpt=  0.1667 -0.1667  0.2500 (reduced coord)
  -0.80738  -0.69097  -0.46956  -0.33255  -0.24229  -0.18771  -0.16235  -0.11927
  -0.10645  -0.01871
 kpt#  26, nband= 10, wtk=  0.02778, kpt=  0.3333 -0.1667  0.5000 (reduced coord)
  -0.76826  -0.64373  -0.43243  -0.33253  -0.31036  -0.25996  -0.24715  -0.19028
  -0.11735   0.02376
 kpt#  27, nband= 10, wtk=  0.02778, kpt=  0.5000 -0.1667 -0.2500 (reduced coord)
  -0.71057  -0.55570  -0.44524  -0.39881  -0.36923  -0.31651  -0.25978  -0.23602
  -0.15753   0.11354
 kpt#  28, nband= 10, wtk=  0.01389, kpt=  0.5000  0.0000  0.0000 (reduced coord)
  -0.70673  -0.53323  -0.49405  -0.43946  -0.36960  -0.25654  -0.24618  -0.18336
  -0.17288   0.12622
 kpt#  29, nband= 10, wtk=  0.02778, kpt= -0.3333  0.0000  0.2500 (reduced coord)
  -0.75116  -0.62080  -0.42177  -0.38611  -0.33596  -0.27608  -0.23666  -0.16174
  -0.13054   0.04418
 kpt#  30, nband= 10, wtk=  0.02778, kpt= -0.1667  0.0000  0.5000 (reduced coord)
  -0.80740  -0.69099  -0.46959  -0.33256  -0.24234  -0.18770  -0.16236  -0.11928
  -0.10647  -0.01871
 kpt#  31, nband= 10, wtk=  0.01389, kpt=  0.0000  0.5000  0.0000 (reduced coord)
  -0.70673  -0.53321  -0.49409  -0.43947  -0.36959  -0.25654  -0.24614  -0.18334
  -0.17291   0.12616
 kpt#  32, nband= 10, wtk=  0.02778, kpt=  0.0000 -0.3333  0.2500 (reduced coord)
  -0.75116  -0.62081  -0.42178  -0.38611  -0.33596  -0.27608  -0.23666  -0.16172
  -0.13054   0.04417
 kpt#  33, nband= 10, wtk=  0.02778, kpt=  0.0000 -0.1667  0.5000 (reduced coord)
  -0.80740  -0.69099  -0.46959  -0.33257  -0.24234  -0.18770  -0.16238  -0.11929
  -0.10644  -0.01871
 kpt#  34, nband= 10, wtk=  0.02778, kpt=  0.3333  0.0000  0.2500 (reduced coord)
  -0.75116  -0.62081  -0.42177  -0.38611  -0.33596  -0.27609  -0.23666  -0.16174
  -0.13053   0.04418
 kpt#  35, nband= 10, wtk=  0.01389, kpt=  0.5000  0.0000  0.5000 (reduced coord)
  -0.70675  -0.53323  -0.49406  -0.43944  -0.36955  -0.25662  -0.24624  -0.18338
  -0.17290   0.12620
 kpt#  36, nband= 10, wtk=  0.02778, kpt=  0.0000  0.3333  0.2500 (reduced coord)
  -0.75116  -0.62080  -0.42178  -0.38611  -0.33596  -0.27607  -0.23666  -0.16173
  -0.13054   0.04417
 kpt#  37, nband= 10, wtk=  0.01389, kpt=  0.0000  0.5000  0.5000 (reduced coord)
  -0.70675  -0.53320  -0.49409  -0.43945  -0.36954  -0.25662  -0.24620  -0.18336
  -0.17294   0.12614
 kpt#  38, nband= 10, wtk=  0.02778, kpt=  0.0000  0.0000  0.2500 (reduced coord)
  -0.82840  -0.71507  -0.49065  -0.34872  -0.15587  -0.15585  -0.13039  -0.06712
  -0.06707  -0.03874
 Total charge density [el/Bohr^3]
,     Maximum=    5.8217E-01  at reduced coord.    0.0417    0.1250    0.0917
,Next maximum=    5.8215E-01  at reduced coord.    0.0833    0.1250    0.0917
,     Minimum=    2.4211E-08  at reduced coord.    0.2083    0.7083    0.5806
,Next minimum=    2.4217E-08  at reduced coord.    0.2917    0.7917    0.5806
,  Integrated=    1.8000E+01

--------------------------------------------------------------------------------
 Components of total free energy (in Hartree) :

    Kinetic energy  =  1.94125855659787E+01
    Hartree energy  =  5.03856573166981E+02
    XC energy       = -7.88583566139876E+00
    Ewald energy    =  4.82763470279089E+02
    PspCore energy  = -1.08225384392824E-02
    Loc. psp. energy= -1.02536769319458E+03
    NL   psp  energy=  1.93092672058120E+00
    >>>>>>>>> Etotal= -2.53007956617834E+01

 Other information on the energy :
    Total energy(eV)= -6.88469662716210E+02 ; Band energy (Ha)=  -6.6689598041E+00
--------------------------------------------------------------------------------

 Cartesian components of stress tensor (hartree/bohr^3)
  sigma(1 1)=  1.88100379E-04  sigma(3 2)= -1.09973977E-07
  sigma(2 2)=  1.88097702E-04  sigma(3 1)= -6.28517499E-08
  sigma(3 3)=  1.91753961E-04  sigma(2 1)= -4.09379361E-09

-Cartesian components of stress tensor (GPa)         [Pressure= -5.5699E+00 GPa]
- sigma(1 1)=  5.53410327E+00  sigma(3 2)= -3.23554558E-03
- sigma(2 2)=  5.53402452E+00  sigma(3 1)= -1.84916201E-03
- sigma(3 3)=  5.64159536E+00  sigma(2 1)= -1.20443546E-04

== END DATASET(S) ==============================================================
================================================================================
  
 -outvars: echo values of variables after computation  --------
            acell      4.7500000000E+00  4.7500000000E+00  7.5000000000E+01 Bohr
              amu      1.00794000E+00  1.40067400E+01  1.08110000E+01
                       1.20110000E+01
           diemac      1.20000000E+01
             ecut      2.80000000E+01 Hartree
           etotal1    -2.5300795662E+01
            fcart1     1.3388723586E-05  2.2772315607E-05  9.0870421144E-03
                      -8.9877662435E-06 -1.1447811547E-05 -4.4511868756E-03
                       4.9131419573E-06  1.5066965594E-05 -1.9585420481E-03
                      -4.8905024185E-08  5.3029750393E-06 -8.0242654804E-04
                      -7.6937639320E-06 -2.6173039657E-05  1.8875833213E-03
                      -1.5714303433E-06 -5.5214050365E-06 -3.7624699639E-03
           getwfk          -1
           istwfk        0    0    0    0    0    0    0    0    0    0
                         0    0    0    0    0    0    0    0    0    0
                         0    0    0    0    0    0    0    3    0    0
                         6    0    0    0    5    0    8    0
           jdtset        1
              kpt     -1.66666667E-01 -3.33333333E-01  0.00000000E+00
                      -3.33333333E-01 -1.66666667E-01  0.00000000E+00
                      -1.66666667E-01 -1.66666667E-01  2.50000000E-01
                      -1.66666667E-01  3.33333333E-01  0.00000000E+00
                      -3.33333333E-01  5.00000000E-01  0.00000000E+00
                      -1.66666667E-01  5.00000000E-01  2.50000000E-01
                       5.00000000E-01 -3.33333333E-01  0.00000000E+00
                      -3.33333333E-01 -3.33333333E-01  2.50000000E-01
                      -1.66666667E-01 -3.33333333E-01  5.00000000E-01
                       3.33333333E-01 -1.66666667E-01  0.00000000E+00
                       5.00000000E-01 -1.66666667E-01  2.50000000E-01
                      -3.33333333E-01 -1.66666667E-01  5.00000000E-01
                      -1.66666667E-01 -1.66666667E-01 -2.50000000E-01
                      -1.66666667E-01  0.00000000E+00  0.00000000E+00
                      -1.66666667E-01  1.66666667E-01  2.50000000E-01
                      -3.33333333E-01  3.33333333E-01  2.50000000E-01
                      -1.66666667E-01  3.33333333E-01  5.00000000E-01
                       5.00000000E-01  5.00000000E-01  2.50000000E-01
                      -3.33333333E-01  5.00000000E-01  5.00000000E-01
                      -1.66666667E-01  5.00000000E-01 -2.50000000E-01
                       3.33333333E-01 -3.33333333E-01  2.50000000E-01
                       5.00000000E-01 -3.33333333E-01  5.00000000E-01
                      -3.33333333E-01 -3.33333333E-01 -2.50000000E-01
                       0.00000000E+00 -1.66666667E-01  0.00000000E+00
                       1.66666667E-01 -1.66666667E-01  2.50000000E-01
                       3.33333333E-01 -1.66666667E-01  5.00000000E-01
                       5.00000000E-01 -1.66666667E-01 -2.50000000E-01
                       5.00000000E-01  0.00000000E+00  0.00000000E+00
                      -3.33333333E-01  0.00000000E+00  2.50000000E-01
                      -1.66666667E-01  0.00000000E+00  5.00000000E-01
                       0.00000000E+00  5.00000000E-01  0.00000000E+00
                       0.00000000E+00 -3.33333333E-01  2.50000000E-01
                       0.00000000E+00 -1.66666667E-01  5.00000000E-01
                       3.33333333E-01  0.00000000E+00  2.50000000E-01
                       5.00000000E-01  0.00000000E+00  5.00000000E-01
                       0.00000000E+00  3.33333333E-01  2.50000000E-01
                       0.00000000E+00  5.00000000E-01  5.00000000E-01
                       0.00000000E+00  0.00000000E+00  2.50000000E-01
         kptrlatt        6    0    0      0    6    0     -3   -3    2
          kptrlen      2.85000000E+01
P           mkmem           4
            natom           6
            nband          10
           ndtset           1
            ngfft          24      24     360
             nkpt          38
            npkpt          12
            nstep          10
             nsym           1
           ntypat           4
              occ      2.000000  2.000000  2.000000  2.000000  2.000000  2.000000
                       2.000000  2.000000  2.000000  0.000000
        optforces           1
            rprim      8.6602540378E-01  5.0000000000E-01  0.0000000000E+00
                      -8.6602540378E-01  5.0000000000E-01  0.0000000000E+00
                       0.0000000000E+00  0.0000000000E+00  1.0000000000E+00
           shiftk      0.00000000E+00  0.00000000E+00  5.00000000E-01
          spgroup           1
           strten1     1.8810037855E-04  1.8809770180E-04  1.9175396111E-04
                      -1.0997397750E-07 -6.2851749916E-08 -4.0937936128E-09
           toldfe      1.00000000E-06 Hartree
            typat      1  2  3  4  4  1
              wtk        0.02778    0.02778    0.02778    0.02778    0.02778    0.02778
                         0.02778    0.02778    0.02778    0.02778    0.02778    0.02778
                         0.02778    0.02778    0.02778    0.02778    0.02778    0.02778
                         0.02778    0.02778    0.02778    0.02778    0.02778    0.02778
                         0.02778    0.02778    0.02778    0.01389    0.02778    0.02778
                         0.01389    0.02778    0.02778    0.02778    0.01389    0.02778
                         0.01389    0.02778
           xangst     -3.1321893141E-04 -5.6192216508E-04  4.7914248882E+00
                      -1.2616590089E-04 -2.3460859872E-04  3.7460214688E+00
                       1.4511184347E+00 -2.3460859872E-04  3.2199867246E+00
                       1.4512047118E+00 -7.7208542265E-05  1.5940639305E+00
                      -1.2313424467E-05 -2.7705072756E-05  1.1212718606E+00
                       0.0000000000E+00  0.0000000000E+00  0.0000000000E+00
            xcart     -5.9189800000E-04 -1.0618790000E-03  9.0544808250E+00
                      -2.3841900000E-04 -4.4334600000E-04  7.0789546640E+00
                       2.7422164280E+00 -4.4334600000E-04  6.0848930610E+00
                       2.7423794680E+00 -1.4590300000E-04  3.0123442670E+00
                      -2.3269000000E-05 -5.2355000000E-05  2.1188967370E+00
                       0.0000000000E+00  0.0000000000E+00  0.0000000000E+00
             xred     -2.9549715150E-04 -1.5160979587E-04  1.2072641100E-01
                      -1.2231521554E-04 -6.4356784457E-05  9.4386062187E-02
                       3.3321600987E-01 -3.3340268187E-01  8.1131907480E-02
                       3.3329844654E-01 -3.3335987938E-01  4.0164590227E-02
                      -1.3850392298E-05 -8.1938182287E-06  2.8251956493E-02
                       0.0000000000E+00  0.0000000000E+00  0.0000000000E+00
            znucl        1.00000    7.00000    5.00000    6.00000

================================================================================


- Timing analysis has been suppressed with timopt=0



================================================================================

 Suggested references for the acknowledgment of ABINIT usage.

 The users of ABINIT have little formal obligations with respect to the ABINIT group
 (those specified in the GNU General Public License, http://www.gnu.org/copyleft/gpl.txt).
 However, it is common practice in the scientific literature,
 to acknowledge the efforts of people that have made the research possible.
 In this spirit, please find below suggested citations of work written by ABINIT developers,
 corresponding to implementations inside of ABINIT that you have used in the present run.
 Note also that it will be of great value to readers of publications presenting these results,
 to read papers enabling them to understand the theoretical formalism and details
 of the ABINIT implementation.
 For information on why they are suggested, see also http://www.abinit.org/about/?text=acknowledgments.

 [1] ABINIT : First-principles approach of materials and nanosystem properties.
 X. Gonze, B. Amadon, P.-M. Anglade, J.-M. Beuken, F. Bottin, P. Boulanger, F. Bruneval,
 D. Caliste, R. Caracas, M. Cote, T. Deutsch, L. Genovese, Ph. Ghosez, M. Giantomassi
 S. Goedecker, D.R. Hamann, P. Hermet, F. Jollet, G. Jomard, S. Leroux, M. Mancini, S. Mazevet,
 M.J.T. Oliveira, G. Onida, Y. Pouillon, T. Rangel, G.-M. Rignanese, D. Sangalli, R. Shaltaf,
 M. Torrent, M.J. Verstraete, G. Zerah, J.W. Zwanziger
 Computer Phys. Comm. 180, 2582-2615 (2009).
 Comment : the third generic paper describing the ABINIT project.
 Note that a version of this paper, that is not formatted for Computer Phys. Comm. 
 is available at http://www.abinit.org/about/ABINIT_CPC_v10.pdf .
 The licence allows the authors to put it on the Web.

 [2] A brief introduction to the ABINIT software package.
 X. Gonze, G.-M. Rignanese, M. Verstraete, J.-M. Beuken, Y. Pouillon, R. Caracas, F. Jollet,
 M. Torrent, G. Zerah, M. Mikami, Ph. Ghosez, M. Veithen, J.-Y. Raty, V. Olevano, F. Bruneval,
 L. Reining, R. Godby, G. Onida, D.R. Hamann, and D.C. Allan.
 Z. Kristallogr. 220, 558-562 (2005).
 Comment : the second generic paper describing the ABINIT project. Note that this paper
 should be cited especially if you are using the GW part of ABINIT, as several authors
 of this part are not in the list of authors of the first or third paper.
 The .pdf of the latter paper is available at http://www.abinit.org/about/zfk_0505-06_558-562.pdf.
 Note that it should not redistributed (Copyright by Oldenburg Wissenshaftverlag,
 the licence allows the authors to put it on the Web).


 And optionally :

 [3] First-principles computation of material properties : the ABINIT software project. 
 X. Gonze, J.-M. Beuken, R. Caracas, F. Detraux, M. Fuchs, G.-M. Rignanese, L. Sindic,
 M. Verstraete, G. Zerah, F. Jollet, M. Torrent, A. Roy, M. Mikami, Ph. Ghosez, J.-Y. Raty, D.C. Allan.
 Computational Materials Science 25, 478-492 (2002). http://dx.doi.org/10.1016/S0927-0256(02)00325-7
 Comment : the original paper describing the ABINIT project.

 [4] Fast radix 2, 3, 4 and 5 kernels for Fast Fourier Transformations
 on computers with overlapping multiply-add instructions.
 S. Goedecker, SIAM J. on Scientific Computing 18, 1605 (1997).
-
- Proc.   0 individual time (sec): cpu=         20.5  wall=         20.5

================================================================================

 Calculation completed.
.Delivered    6 WARNINGs and   8 COMMENTs to log file.
+Overall time at end (sec) : cpu=        246.3  wall=        246.3
