
.Version 7.0.5 of ABINIT 
.(MPI version, prepared for a x86_64_none_intel12.1 computer) 

.Copyright (C) 1998-2012 ABINIT group . 
 ABINIT comes with ABSOLUTELY NO WARRANTY.
 It is free software, and you are welcome to redistribute it
 under certain conditions (GNU General Public License,
 see ~abinit/COPYING or http://www.gnu.org/copyleft/gpl.txt).

 ABINIT is a project of the Universite Catholique de Louvain,
 Corning Inc. and other collaborators, see ~abinit/doc/developers/contributors.txt .
 Please read ~abinit/doc/users/acknowledgments.html for suggested
 acknowledgments of the ABINIT effort.
 For more information, see http://www.abinit.org .

.Starting date : Tue 21 Mar 2017.
- ( at  0h 7 )
  

 herald :  WARNING -
  The starting date is more than 3 years after the initial release
  of this version of ABINIT, namely Jan 2013.
  This version of ABINIT is not supported anymore.
  Action : please, switch to a more recent version of ABINIT.
- input  file    -> aa-ecut.in
- output file    -> aa-ecut.outC
- root for input  files -> aa-ecut_i
- root for output files -> aa-ecut_o


 DATASET    1 : space group P1 (#  1); Bravais aP (primitive triclinic)
================================================================================
 Values of the parameters that define the memory need for DATASET  1.
   intxc =         0  ionmov =         0    iscf =         7 xclevel =         1
  lmnmax =         1   lnmax =         1   mband =        10  mffmem =         1
P  mgfft =       360   mkmem =         4 mpssoang=         2     mpw =      8290
  mqgrid =     16540   natom =         6    nfft =    207360    nkpt =        38
  nloalg =         4  nspden =         1 nspinor =         1  nsppol =         1
    nsym =         1  n1xccc =         0  ntypat =         4  occopt =         1
================================================================================
P This job should need less than                      62.245 Mbytes of memory.
  Rough estimation (10% accuracy) of disk space for files :
  WF disk file :     48.070 Mbytes ; DEN or POT disk file :      1.584 Mbytes.
================================================================================

--------------------------------------------------------------------------------
------------- Echo of variables that govern the present computation ------------
--------------------------------------------------------------------------------
-
- outvars: echo of selected default values                                      
-   accesswff0 =  0 , fftalg0 =112 , wfoptalg0 =  0
-
- outvars: echo of global parameters not present in the input file              
-  max_nthreads =    0
-
 -outvars: echo values of preprocessed input variables --------
            acell      4.7500000000E+00  4.7500000000E+00  7.5000000000E+01 Bohr
              amu      1.00794000E+00  1.40067400E+01  1.08110000E+01
                       1.20110000E+01
           diemac      1.20000000E+01
             ecut      2.40000000E+01 Hartree
           getwfk          -1
           istwfk        0    0    0    0    0    0    0    0    0    0
                         0    0    0    0    0    0    0    0    0    0
                         0    0    0    0    0    0    0    3    0    0
                         6    0    0    0    5    0    8    0
           jdtset        1
              kpt     -1.66666667E-01 -3.33333333E-01  0.00000000E+00
                      -3.33333333E-01 -1.66666667E-01  0.00000000E+00
                      -1.66666667E-01 -1.66666667E-01  2.50000000E-01
                      -1.66666667E-01  3.33333333E-01  0.00000000E+00
                      -3.33333333E-01  5.00000000E-01  0.00000000E+00
                      -1.66666667E-01  5.00000000E-01  2.50000000E-01
                       5.00000000E-01 -3.33333333E-01  0.00000000E+00
                      -3.33333333E-01 -3.33333333E-01  2.50000000E-01
                      -1.66666667E-01 -3.33333333E-01  5.00000000E-01
                       3.33333333E-01 -1.66666667E-01  0.00000000E+00
                       5.00000000E-01 -1.66666667E-01  2.50000000E-01
                      -3.33333333E-01 -1.66666667E-01  5.00000000E-01
                      -1.66666667E-01 -1.66666667E-01 -2.50000000E-01
                      -1.66666667E-01  0.00000000E+00  0.00000000E+00
                      -1.66666667E-01  1.66666667E-01  2.50000000E-01
                      -3.33333333E-01  3.33333333E-01  2.50000000E-01
                      -1.66666667E-01  3.33333333E-01  5.00000000E-01
                       5.00000000E-01  5.00000000E-01  2.50000000E-01
                      -3.33333333E-01  5.00000000E-01  5.00000000E-01
                      -1.66666667E-01  5.00000000E-01 -2.50000000E-01
                       3.33333333E-01 -3.33333333E-01  2.50000000E-01
                       5.00000000E-01 -3.33333333E-01  5.00000000E-01
                      -3.33333333E-01 -3.33333333E-01 -2.50000000E-01
                       0.00000000E+00 -1.66666667E-01  0.00000000E+00
                       1.66666667E-01 -1.66666667E-01  2.50000000E-01
                       3.33333333E-01 -1.66666667E-01  5.00000000E-01
                       5.00000000E-01 -1.66666667E-01 -2.50000000E-01
                       5.00000000E-01  0.00000000E+00  0.00000000E+00
                      -3.33333333E-01  0.00000000E+00  2.50000000E-01
                      -1.66666667E-01  0.00000000E+00  5.00000000E-01
                       0.00000000E+00  5.00000000E-01  0.00000000E+00
                       0.00000000E+00 -3.33333333E-01  2.50000000E-01
                       0.00000000E+00 -1.66666667E-01  5.00000000E-01
                       3.33333333E-01  0.00000000E+00  2.50000000E-01
                       5.00000000E-01  0.00000000E+00  5.00000000E-01
                       0.00000000E+00  3.33333333E-01  2.50000000E-01
                       0.00000000E+00  5.00000000E-01  5.00000000E-01
                       0.00000000E+00  0.00000000E+00  2.50000000E-01
         kptrlatt        6    0    0      0    6    0     -3   -3    2
          kptrlen      2.85000000E+01
P           mkmem           4
            natom           6
            nband          10
           ndtset           1
            ngfft          24      24     360
             nkpt          38
            npkpt          12
            nstep          10
             nsym           1
           ntypat           4
              occ      2.000000  2.000000  2.000000  2.000000  2.000000  2.000000
                       2.000000  2.000000  2.000000  0.000000
        optforces           1
            rprim      8.6602540378E-01  5.0000000000E-01  0.0000000000E+00
                      -8.6602540378E-01  5.0000000000E-01  0.0000000000E+00
                       0.0000000000E+00  0.0000000000E+00  1.0000000000E+00
           shiftk      0.00000000E+00  0.00000000E+00  5.00000000E-01
          spgroup           1
           toldfe      1.00000000E-06 Hartree
            typat      1  2  3  4  4  1
              wtk        0.02778    0.02778    0.02778    0.02778    0.02778    0.02778
                         0.02778    0.02778    0.02778    0.02778    0.02778    0.02778
                         0.02778    0.02778    0.02778    0.02778    0.02778    0.02778
                         0.02778    0.02778    0.02778    0.02778    0.02778    0.02778
                         0.02778    0.02778    0.02778    0.01389    0.02778    0.02778
                         0.01389    0.02778    0.02778    0.02778    0.01389    0.02778
                         0.01389    0.02778
           xangst     -3.1321893141E-04 -5.6192216508E-04  4.7914248882E+00
                      -1.2616590089E-04 -2.3460859872E-04  3.7460214688E+00
                       1.4511184347E+00 -2.3460859872E-04  3.2199867246E+00
                       1.4512047118E+00 -7.7208542265E-05  1.5940639305E+00
                      -1.2313424467E-05 -2.7705072756E-05  1.1212718606E+00
                       0.0000000000E+00  0.0000000000E+00  0.0000000000E+00
            xcart     -5.9189800000E-04 -1.0618790000E-03  9.0544808250E+00
                      -2.3841900000E-04 -4.4334600000E-04  7.0789546640E+00
                       2.7422164280E+00 -4.4334600000E-04  6.0848930610E+00
                       2.7423794680E+00 -1.4590300000E-04  3.0123442670E+00
                      -2.3269000000E-05 -5.2355000000E-05  2.1188967370E+00
                       0.0000000000E+00  0.0000000000E+00  0.0000000000E+00
             xred     -2.9549715150E-04 -1.5160979587E-04  1.2072641100E-01
                      -1.2231521554E-04 -6.4356784457E-05  9.4386062187E-02
                       3.3321600987E-01 -3.3340268187E-01  8.1131907480E-02
                       3.3329844654E-01 -3.3335987938E-01  4.0164590227E-02
                      -1.3850392298E-05 -8.1938182287E-06  2.8251956493E-02
                       0.0000000000E+00  0.0000000000E+00  0.0000000000E+00
            znucl        1.00000    7.00000    5.00000    6.00000

================================================================================

 chkinp: Checking input parameters for consistency, jdtset=   1.

================================================================================
== DATASET  1 ==================================================================
-   nproc =   12

 Exchange-correlation functional for the present dataset will be:
  LDA: new Teter (4/93) with spin-polarized option - ixc=1
 Citation for XC functional:
  S. Goedecker, M. Teter, J. Huetter, PRB 54, 1703 (1996)
 
 Real(R)+Recip(G) space primitive vectors, cartesian coordinates (Bohr,Bohr^-1):
 R(1)=  4.1136207  2.3750000  0.0000000  G(1)=  0.1215474  0.2105263  0.0000000
 R(2)= -4.1136207  2.3750000  0.0000000  G(2)= -0.1215474  0.2105263  0.0000000
 R(3)=  0.0000000  0.0000000 75.0000000  G(3)=  0.0000000  0.0000000  0.0133333
 Unit cell volume ucvol=  1.4654774E+03 bohr^3
 Angles (23,13,12)=  9.00000000E+01  9.00000000E+01  1.20000000E+02 degrees

 getcut: wavevector=  0.0000  0.0000  0.0000  ngfft=  24  24 360
         ecut(hartree)=     24.000   => boxcut(ratio)=   2.17656

--- Pseudopotential description ------------------------------------------------
- pspini: atom type   1  psp file is /home/reinaldo/tiniba/pseudopotentials/hgh/1h.1.hgh
- pspatm: opening atomic psp file    /home/reinaldo/tiniba/pseudopotentials/hgh/1h.1.hgh
- Hartwigsen-Goedecker-Hutter psp for H,  from PRB58, 3641 (1998)
-  1.00000   1.00000     10605                znucl, zion, pspdat
    3    1    0    0      2001   0.00000      pspcod,pspxc,lmax,lloc,mmax,r2well
 rloc=   0.2000000
 cc1 =  -4.1802370; cc2 =   0.7250750; cc3 =   0.0000000; cc4 =   0.0000000
 rrs =   0.0000000; h11s=   0.0000000; h22s=   0.0000000; h33s=   0.0000000
-  Local part computed in reciprocal space.

 pspatm : COMMENT -
  the projectors are not normalized,
  so that the KB energies are not consistent with 
  definition in PRB44, 8503 (1991). 
  However, this does not influence the results obtained hereafter.
 pspatm: epsatm=   -0.00129784
         --- l  ekb(1:nproj) -->
 pspatm: atomic psp has been read  and splines computed

- pspini: atom type   2  psp file is /home/reinaldo/tiniba/pseudopotentials/hgh/7n.5.hgh
- pspatm: opening atomic psp file    /home/reinaldo/tiniba/pseudopotentials/hgh/7n.5.hgh
- Hartwigsen-Goedecker-Hutter psp for N,  from PRB58, 3641 (1998)
-  7.00000   5.00000     10605                znucl, zion, pspdat
    3    1    1    0      2001   0.00000      pspcod,pspxc,lmax,lloc,mmax,r2well
 rloc=   0.2891790
 cc1 = -12.2348200; cc2 =   1.7664070; cc3 =   0.0000000; cc4 =   0.0000000
 rrs =   0.2566050; h11s=  13.5522430; h22s=   0.0000000; h33s=   0.0000000
 rrp =   0.2701340; h11p=   0.0000000; h22p=   0.0000000; h33p=   0.0000000
                    k11p=   0.0031310; k22p=   0.0000000; k33p=   0.0000000
-  Local part computed in reciprocal space.

 pspatm : COMMENT -
  the projectors are not normalized,
  so that the KB energies are not consistent with 
  definition in PRB44, 8503 (1991). 
  However, this does not influence the results obtained hereafter.
 pspatm: epsatm=   -0.01437983
         --- l  ekb(1:nproj) -->
             0    0.811730
 pspatm: atomic psp has been read  and splines computed

- pspini: atom type   3  psp file is /home/reinaldo/tiniba/pseudopotentials/hgh/5b.3.hgh
- pspatm: opening atomic psp file    /home/reinaldo/tiniba/pseudopotentials/hgh/5b.3.hgh
- Hartwigsen-Goedecker-Hutter psp for B,  from PRB58, 3641 (1998)
-  5.00000   3.00000     10605                znucl, zion, pspdat
    3    1    1    0      2001   0.00000      pspcod,pspxc,lmax,lloc,mmax,r2well
 rloc=   0.4339300
 cc1 =  -5.5786420; cc2 =   0.8042510; cc3 =   0.0000000; cc4 =   0.0000000
 rrs =   0.3738430; h11s=   6.2339280; h22s=   0.0000000; h33s=   0.0000000
 rrp =   0.3603930; h11p=   0.0000000; h22p=   0.0000000; h33p=   0.0000000
                    k11p=   0.0008780; k22p=   0.0000000; k33p=   0.0000000
-  Local part computed in reciprocal space.

 pspatm : COMMENT -
  the projectors are not normalized,
  so that the KB energies are not consistent with 
  definition in PRB44, 8503 (1991). 
  However, this does not influence the results obtained hereafter.
 pspatm: epsatm=   -0.52475100
         --- l  ekb(1:nproj) -->
             0    1.154608
 pspatm: atomic psp has been read  and splines computed

- pspini: atom type   4  psp file is /home/reinaldo/tiniba/pseudopotentials/hgh/6c.4.hgh
- pspatm: opening atomic psp file    /home/reinaldo/tiniba/pseudopotentials/hgh/6c.4.hgh
- Hartwigsen-Goedecker-Hutter psp for C,  from PRB58, 3641 (1998)
-  6.00000   4.00000     10605                znucl, zion, pspdat
    3    1    1    0      2001   0.00000      pspcod,pspxc,lmax,lloc,mmax,r2well
 rloc=   0.3488300
 cc1 =  -8.5137710; cc2 =   1.2284320; cc3 =   0.0000000; cc4 =   0.0000000
 rrs =   0.3045530; h11s=   9.5228420; h22s=   0.0000000; h33s=   0.0000000
 rrp =   0.2326770; h11p=   0.0000000; h22p=   0.0000000; h33p=   0.0000000
                    k11p=   0.0041040; k22p=   0.0000000; k33p=   0.0000000
-  Local part computed in reciprocal space.

 pspatm : COMMENT -
  the projectors are not normalized,
  so that the KB energies are not consistent with 
  definition in PRB44, 8503 (1991). 
  However, this does not influence the results obtained hereafter.
 pspatm: epsatm=   -0.16969744
         --- l  ekb(1:nproj) -->
             0    0.953587
 pspatm: atomic psp has been read  and splines computed

  -1.58601851E+01                                ecore*ucvol(ha*bohr**3)
--------------------------------------------------------------------------------

P newkpt: treating     10 bands with npw=    8211 for ikpt=   1 by node    0
P newkpt: treating     10 bands with npw=    8211 for ikpt=   2 by node    0
P newkpt: treating     10 bands with npw=    8191 for ikpt=   3 by node    0
P newkpt: treating     10 bands with npw=    8195 for ikpt=   4 by node    0
P newkpt: treating     10 bands with npw=    8211 for ikpt=   5 by node    1
P newkpt: treating     10 bands with npw=    8224 for ikpt=   6 by node    1
P newkpt: treating     10 bands with npw=    8211 for ikpt=   7 by node    1
P newkpt: treating     10 bands with npw=    8217 for ikpt=   8 by node    1
P newkpt: treating     10 bands with npw=    8234 for ikpt=   9 by node    2
P newkpt: treating     10 bands with npw=    8195 for ikpt=  10 by node    2
P newkpt: treating     10 bands with npw=    8224 for ikpt=  11 by node    2
P newkpt: treating     10 bands with npw=    8234 for ikpt=  12 by node    2
P newkpt: treating     10 bands with npw=    8191 for ikpt=  13 by node    3
P newkpt: treating     10 bands with npw=    8243 for ikpt=  14 by node    3
P newkpt: treating     10 bands with npw=    8244 for ikpt=  15 by node    3
P newkpt: treating     10 bands with npw=    8265 for ikpt=  16 by node    3
P newkpt: treating     10 bands with npw=    8196 for ikpt=  17 by node    4
P newkpt: treating     10 bands with npw=    8290 for ikpt=  18 by node    4
P newkpt: treating     10 bands with npw=    8234 for ikpt=  19 by node    4
P newkpt: treating     10 bands with npw=    8224 for ikpt=  20 by node    4
P newkpt: treating     10 bands with npw=    8265 for ikpt=  21 by node    5
P newkpt: treating     10 bands with npw=    8234 for ikpt=  22 by node    5
P newkpt: treating     10 bands with npw=    8217 for ikpt=  23 by node    5
P newkpt: treating     10 bands with npw=    8243 for ikpt=  24 by node    5
P newkpt: treating     10 bands with npw=    8244 for ikpt=  25 by node    6
P newkpt: treating     10 bands with npw=    8196 for ikpt=  26 by node    6
P newkpt: treating     10 bands with npw=    8224 for ikpt=  27 by node    6
P newkpt: treating     10 bands with npw=    4148 for ikpt=  28 by node    6
P newkpt: treating     10 bands with npw=    8265 for ikpt=  29 by node    7
P newkpt: treating     10 bands with npw=    8236 for ikpt=  30 by node    7
P newkpt: treating     10 bands with npw=    4148 for ikpt=  31 by node    7
P newkpt: treating     10 bands with npw=    8265 for ikpt=  32 by node    7
P newkpt: treating     10 bands with npw=    8236 for ikpt=  33 by node    8
P newkpt: treating     10 bands with npw=    8265 for ikpt=  34 by node    8
P newkpt: treating     10 bands with npw=    4148 for ikpt=  35 by node    8
P newkpt: treating     10 bands with npw=    8265 for ikpt=  36 by node    8
P newkpt: treating     10 bands with npw=    4148 for ikpt=  37 by node    9
P newkpt: treating     10 bands with npw=    8151 for ikpt=  38 by node    9
 
 setup2: Arith. and geom. avg. npw (full set) are    8231.750    8231.689

================================================================================

     iter   Etot(hartree)      deltaE(h)  residm     vres2    diffor    maxfor
 ETOT  1  -24.852929888612    -2.485E+01 1.396E-01 3.567E+04 1.203E-01 1.203E-01
 ETOT  2  -25.156868053371    -3.039E-01 1.137E-01 8.173E+03 1.309E-01 7.364E-02
 ETOT  3  -25.202320925792    -4.545E-02 2.013E-02 3.726E+03 5.573E-02 5.218E-02
 ETOT  4  -25.205912456349    -3.592E-03 3.096E-03 2.077E+03 7.087E-02 4.107E-02
 ETOT  5  -25.216650642571    -1.074E-02 1.983E-03 5.960E+02 4.629E-02 1.019E-02
 ETOT  6  -25.217298737282    -6.481E-04 2.793E-04 3.737E+02 1.262E-02 7.403E-03
 ETOT  7  -25.217831063707    -5.323E-04 1.040E-04 1.210E+02 7.438E-03 5.448E-03
 ETOT  8  -25.217816802289     1.426E-05 2.397E-05 8.908E+01 2.843E-03 3.493E-03
 ETOT  9  -25.217914694701    -9.789E-05 4.274E-06 4.039E+01 1.740E-03 5.233E-03
 ETOT 10  -25.217933802081    -1.911E-05 1.127E-05 5.875E+00 2.698E-03 7.931E-03

 Cartesian components of stress tensor (hartree/bohr^3)
  sigma(1 1)=  2.42545576E-04  sigma(3 2)= -1.11408686E-07
  sigma(2 2)=  2.42543268E-04  sigma(3 1)= -5.97614798E-08
  sigma(3 3)=  2.51281265E-04  sigma(2 1)=  1.19931749E-08
 

 scprqt:  WARNING -
  nstep=   10 was not enough SCF cycles to converge;
  maximum energy difference=  1.911E-05 exceeds toldfe=  1.000E-06

================================================================================

 ----iterations are completed or convergence reached----

 Mean square residual over all n,k,spin=   7.2152E-07; max=  1.1269E-05
  -0.1667 -0.3333  0.0000    1  4.97818E-06 kpt; spin; max resid(k); each band:
  2.79E-07 1.75E-07 8.18E-08 1.62E-07 5.03E-07 4.54E-08 1.18E-07 2.00E-07
  1.60E-07 4.98E-06
  -0.3333 -0.1667  0.0000    1  5.10012E-06 kpt; spin; max resid(k); each band:
  2.79E-07 1.76E-07 8.24E-08 1.56E-07 5.06E-07 4.57E-08 1.16E-07 2.04E-07
  1.61E-07 5.10E-06
  -0.1667 -0.1667  0.2500    1  2.67990E-06 kpt; spin; max resid(k); each band:
  2.76E-07 2.03E-07 5.12E-07 1.85E-07 2.77E-07 1.38E-07 1.17E-07 7.37E-08
  4.61E-07 2.68E-06
  -0.1667  0.3333  0.0000    1  2.67986E-06 kpt; spin; max resid(k); each band:
  2.75E-07 2.04E-07 5.12E-07 1.85E-07 2.77E-07 1.41E-07 1.18E-07 7.27E-08
  4.55E-07 2.68E-06
  -0.3333  0.5000  0.0000    1  5.06319E-06 kpt; spin; max resid(k); each band:
  2.79E-07 1.74E-07 8.36E-08 1.64E-07 5.03E-07 4.55E-08 1.14E-07 2.04E-07
  1.56E-07 5.06E-06
  -0.1667  0.5000  0.2500    1  5.00378E-06 kpt; spin; max resid(k); each band:
  2.79E-07 1.74E-07 8.25E-08 1.64E-07 5.03E-07 4.54E-08 1.15E-07 2.03E-07
  1.56E-07 5.00E-06
   0.5000 -0.3333  0.0000    1  5.04126E-06 kpt; spin; max resid(k); each band:
  2.79E-07 1.76E-07 8.26E-08 1.61E-07 5.02E-07 4.51E-08 1.18E-07 1.99E-07
  1.62E-07 5.04E-06
  -0.3333 -0.3333  0.2500    1  2.67518E-07 kpt; spin; max resid(k); each band:
  2.47E-07 1.23E-07 1.34E-07 1.27E-08 2.15E-08 2.68E-07 6.55E-08 7.08E-08
  1.34E-07 2.20E-07
  -0.1667 -0.3333  0.5000    1  5.04811E-06 kpt; spin; max resid(k); each band:
  2.79E-07 1.75E-07 8.18E-08 1.62E-07 5.03E-07 4.54E-08 1.18E-07 2.00E-07
  1.60E-07 5.05E-06
   0.3333 -0.1667  0.0000    1  2.67660E-06 kpt; spin; max resid(k); each band:
  2.76E-07 2.05E-07 5.12E-07 1.85E-07 2.75E-07 1.38E-07 1.16E-07 7.15E-08
  4.62E-07 2.68E-06
   0.5000 -0.1667  0.2500    1  5.02916E-06 kpt; spin; max resid(k); each band:
  2.79E-07 1.78E-07 8.22E-08 1.56E-07 5.05E-07 4.52E-08 1.17E-07 2.01E-07
  1.62E-07 5.03E-06
  -0.3333 -0.1667  0.5000    1  4.99274E-06 kpt; spin; max resid(k); each band:
  2.79E-07 1.77E-07 8.24E-08 1.57E-07 5.06E-07 4.57E-08 1.16E-07 2.04E-07
  1.61E-07 4.99E-06
  -0.1667 -0.1667 -0.2500    1  2.67674E-06 kpt; spin; max resid(k); each band:
  2.76E-07 2.04E-07 5.12E-07 1.85E-07 2.77E-07 1.38E-07 1.17E-07 7.37E-08
  4.61E-07 2.68E-06
  -0.1667  0.0000  0.0000    1  6.42141E-06 kpt; spin; max resid(k); each band:
  2.81E-07 2.19E-07 5.25E-07 7.57E-07 3.81E-08 4.78E-09 1.36E-07 2.20E-06
  1.62E-08 6.42E-06
  -0.1667  0.1667  0.2500    1  6.46322E-06 kpt; spin; max resid(k); each band:
  2.81E-07 2.19E-07 5.24E-07 7.57E-07 3.83E-08 4.63E-09 1.37E-07 2.19E-06
  1.63E-08 6.46E-06
  -0.3333  0.3333  0.2500    1  2.99542E-06 kpt; spin; max resid(k); each band:
  2.76E-07 1.89E-07 3.67E-07 2.76E-07 1.29E-07 4.38E-07 4.24E-09 9.87E-09
  2.31E-07 3.00E-06
  -0.1667  0.3333  0.5000    1  2.68165E-06 kpt; spin; max resid(k); each band:
  2.75E-07 2.03E-07 5.11E-07 1.85E-07 2.78E-07 1.41E-07 1.19E-07 7.28E-08
  4.55E-07 2.68E-06
   0.5000  0.5000  0.2500    1  8.88317E-06 kpt; spin; max resid(k); each band:
  2.80E-07 1.84E-07 1.21E-07 9.62E-08 2.94E-07 4.36E-09 1.75E-07 9.21E-09
  1.51E-07 8.88E-06
  -0.3333  0.5000  0.5000    1  5.01624E-06 kpt; spin; max resid(k); each band:
  2.79E-07 1.75E-07 8.35E-08 1.64E-07 5.03E-07 4.55E-08 1.14E-07 2.04E-07
  1.56E-07 5.02E-06
  -0.1667  0.5000 -0.2500    1  4.99212E-06 kpt; spin; max resid(k); each band:
  2.79E-07 1.74E-07 8.26E-08 1.64E-07 5.03E-07 4.54E-08 1.15E-07 2.03E-07
  1.56E-07 4.99E-06
   0.3333 -0.3333  0.2500    1  2.94984E-06 kpt; spin; max resid(k); each band:
  2.76E-07 1.89E-07 3.67E-07 2.76E-07 1.29E-07 4.38E-07 4.23E-09 9.94E-09
  2.30E-07 2.95E-06
   0.5000 -0.3333  0.5000    1  4.99040E-06 kpt; spin; max resid(k); each band:
  2.79E-07 1.76E-07 8.26E-08 1.61E-07 5.02E-07 4.50E-08 1.18E-07 1.99E-07
  1.62E-07 4.99E-06
  -0.3333 -0.3333 -0.2500    1  2.67530E-07 kpt; spin; max resid(k); each band:
  2.47E-07 1.23E-07 1.34E-07 1.27E-08 2.15E-08 2.68E-07 6.55E-08 7.08E-08
  1.34E-07 2.19E-07
   0.0000 -0.1667  0.0000    1  6.44618E-06 kpt; spin; max resid(k); each band:
  2.81E-07 2.18E-07 5.25E-07 7.57E-07 3.85E-08 4.59E-09 1.37E-07 2.19E-06
  1.59E-08 6.45E-06
   0.1667 -0.1667  0.2500    1  6.41322E-06 kpt; spin; max resid(k); each band:
  2.80E-07 2.18E-07 5.24E-07 7.56E-07 3.83E-08 4.62E-09 1.37E-07 2.19E-06
  1.61E-08 6.41E-06
   0.3333 -0.1667  0.5000    1  2.67648E-06 kpt; spin; max resid(k); each band:
  2.76E-07 2.05E-07 5.12E-07 1.84E-07 2.76E-07 1.38E-07 1.18E-07 7.16E-08
  4.62E-07 2.68E-06
   0.5000 -0.1667 -0.2500    1  5.01008E-06 kpt; spin; max resid(k); each band:
  2.79E-07 1.78E-07 8.23E-08 1.56E-07 5.05E-07 4.52E-08 1.17E-07 2.01E-07
  1.62E-07 5.01E-06
   0.5000  0.0000  0.0000    1  8.84439E-06 kpt; spin; max resid(k); each band:
  2.80E-07 1.89E-07 1.16E-07 8.85E-08 2.97E-07 4.59E-09 1.73E-07 8.93E-09
  1.54E-07 8.84E-06
  -0.3333  0.0000  0.2500    1  2.95531E-06 kpt; spin; max resid(k); each band:
  2.77E-07 1.90E-07 3.69E-07 2.75E-07 1.27E-07 4.36E-07 4.45E-09 9.65E-09
  2.32E-07 2.96E-06
  -0.1667  0.0000  0.5000    1  6.38274E-06 kpt; spin; max resid(k); each band:
  2.81E-07 2.17E-07 5.25E-07 7.58E-07 3.81E-08 4.76E-09 1.36E-07 2.20E-06
  1.62E-08 6.38E-06
   0.0000  0.5000  0.0000    1  8.83412E-06 kpt; spin; max resid(k); each band:
  2.80E-07 1.84E-07 1.18E-07 9.63E-08 2.95E-07 4.35E-09 1.77E-07 8.81E-09
  1.50E-07 8.83E-06
   0.0000 -0.3333  0.2500    1  2.97653E-06 kpt; spin; max resid(k); each band:
  2.77E-07 1.87E-07 3.68E-07 2.77E-07 1.29E-07 4.39E-07 4.22E-09 9.60E-09
  2.31E-07 2.98E-06
   0.0000 -0.1667  0.5000    1  6.45574E-06 kpt; spin; max resid(k); each band:
  2.81E-07 2.17E-07 5.25E-07 7.57E-07 3.84E-08 4.60E-09 1.37E-07 2.19E-06
  1.60E-08 6.46E-06
   0.3333  0.0000  0.2500    1  2.94210E-06 kpt; spin; max resid(k); each band:
  2.77E-07 1.90E-07 3.69E-07 2.75E-07 1.27E-07 4.36E-07 4.45E-09 9.69E-09
  2.33E-07 2.94E-06
   0.5000  0.0000  0.5000    1  8.89728E-06 kpt; spin; max resid(k); each band:
  2.80E-07 1.89E-07 1.16E-07 8.85E-08 2.98E-07 4.59E-09 1.73E-07 9.01E-09
  1.54E-07 8.90E-06
   0.0000  0.3333  0.2500    1  2.93058E-06 kpt; spin; max resid(k); each band:
  2.77E-07 1.88E-07 3.68E-07 2.77E-07 1.29E-07 4.39E-07 4.22E-09 9.62E-09
  2.30E-07 2.93E-06
   0.0000  0.5000  0.5000    1  8.79957E-06 kpt; spin; max resid(k); each band:
  2.80E-07 1.84E-07 1.18E-07 9.64E-08 2.95E-07 4.35E-09 1.77E-07 8.91E-09
  1.50E-07 8.80E-06
   0.0000  0.0000  0.2500    1  1.12687E-05 kpt; spin; max resid(k); each band:
  2.84E-07 2.36E-07 5.13E-07 9.32E-07 6.29E-09 6.57E-09 4.10E-06 3.01E-08
  2.88E-08 1.13E-05
 reduced coordinates (array xred) for    6 atoms
      -0.000295497152     -0.000151609796      0.120726411000
      -0.000122315216     -0.000064356784      0.094386062187
       0.333216009872     -0.333402681872      0.081131907480
       0.333298446543     -0.333359879385      0.040164590227
      -0.000013850392     -0.000008193818      0.028251956493
       0.000000000000      0.000000000000      0.000000000000
 rms dE/dt=  1.7114E-01; max dE/dt=  2.6595E-01; dE/dt below (all hartree)
    1      -0.000111990189      0.000003892793     -0.597350635913
    2      -0.000050831291      0.000100392969     -0.019934769542
    3       0.000042563520     -0.000095538672      0.265947990032
    4       0.000033640541     -0.000162477501     -0.080823453516
    5       0.000054535141      0.000134921243      0.154694974079
    6       0.000022013156      0.000003406247      0.262303693157
 
 cartesian coordinates (angstrom) at end:
    1     -0.00031321893141    -0.00056192216508     4.79142488820518
    2     -0.00012616590089    -0.00023460859872     3.74602146883068
    3      1.45111843471868    -0.00023460859872     3.21998672458864
    4      1.45120471177077    -0.00007720854226     1.59406393052315
    5     -0.00001231342447    -0.00002770507276     1.12127186057612
    6      0.00000000000000     0.00000000000000     0.00000000000000

 cartesian forces (hartree/bohr) at end:
    1      0.00001419332959     0.00002186359059     0.00793098136395
    2      0.00001848897101    -0.00001132779346     0.00023210314566
    3     -0.00001667791423     0.00001025890773    -0.00357966698198
    4     -0.00002372959148     0.00002622981466     0.00104395226531
    5      0.00000987877536    -0.00004077931041    -0.00209629343595
    6     -0.00000215357025    -0.00000624520912    -0.00353107635699
 frms,max,avg= 2.2818818E-03 7.9309814E-03  -1.081E-07  8.938E-07  3.369E-05 h/b

 cartesian forces (eV/Angstrom) at end:
    1      0.00072985029114     0.00112427093675     0.40782742487335
    2      0.00095074103554    -0.00058249851093     0.01193522262307
    3     -0.00085761275926     0.00052753420175    -0.18407386175473
    4     -0.00122022455276     0.00134879118721     0.05368217935657
    5      0.00050798701074    -0.00209695627677    -0.10779573353270
    6     -0.00011074102539    -0.00032114153801    -0.18157523156557
 frms,max,avg= 1.1733907E-01 4.0782742E-01  -5.556E-06  4.596E-05  1.733E-03 e/A
 length scales=  4.750000000000  4.750000000000 75.000000000000 bohr
              =  2.513591740802  2.513591740802 39.688290644250 angstroms
 prteigrs : about to open file aa-ecut_o_DS1_EIG
 Fermi (or HOMO) energy (hartree) =  -0.06788   Average Vxc (hartree)=  -0.08414
 Eigenvalues (hartree) for nkpt=  38  k points:
 kpt#   1, nband= 10, wtk=  0.02778, kpt= -0.1667 -0.3333  0.0000 (reduced coord)
  -0.71308  -0.55741  -0.44673  -0.40016  -0.36978  -0.31735  -0.26081  -0.23691
  -0.15812   0.11280
 kpt#   2, nband= 10, wtk=  0.02778, kpt= -0.3333 -0.1667  0.0000 (reduced coord)
  -0.71308  -0.55742  -0.44672  -0.40014  -0.36980  -0.31735  -0.26083  -0.23692
  -0.15811   0.11281
 kpt#   3, nband= 10, wtk=  0.02778, kpt= -0.1667 -0.1667  0.2500 (reduced coord)
  -0.77078  -0.64548  -0.43330  -0.33303  -0.31124  -0.26019  -0.24764  -0.19120
  -0.11790   0.02289
 kpt#   4, nband= 10, wtk=  0.02778, kpt= -0.1667  0.3333  0.0000 (reduced coord)
  -0.77081  -0.64549  -0.43330  -0.33301  -0.31128  -0.26017  -0.24766  -0.19118
  -0.11792   0.02286
 kpt#   5, nband= 10, wtk=  0.02778, kpt= -0.3333  0.5000  0.0000 (reduced coord)
  -0.71308  -0.55741  -0.44673  -0.40015  -0.36979  -0.31735  -0.26081  -0.23690
  -0.15812   0.11280
 kpt#   6, nband= 10, wtk=  0.02778, kpt= -0.1667  0.5000  0.2500 (reduced coord)
  -0.71312  -0.55745  -0.44675  -0.40020  -0.36984  -0.31739  -0.26084  -0.23693
  -0.15816   0.11279
 kpt#   7, nband= 10, wtk=  0.02778, kpt=  0.5000 -0.3333  0.0000 (reduced coord)
  -0.71308  -0.55742  -0.44673  -0.40015  -0.36978  -0.31736  -0.26082  -0.23691
  -0.15811   0.11280
 kpt#   8, nband= 10, wtk=  0.02778, kpt= -0.3333 -0.3333  0.2500 (reduced coord)
  -0.68802  -0.47281  -0.47144  -0.41439  -0.39636  -0.35017  -0.33845  -0.20880
  -0.18801   0.13335
 kpt#   9, nband= 10, wtk=  0.02778, kpt= -0.1667 -0.3333  0.5000 (reduced coord)
  -0.71315  -0.55745  -0.44677  -0.40022  -0.36989  -0.31741  -0.26086  -0.23697
  -0.15821   0.11276
 kpt#  10, nband= 10, wtk=  0.02778, kpt=  0.3333 -0.1667  0.0000 (reduced coord)
  -0.77081  -0.64549  -0.43330  -0.33301  -0.31127  -0.26017  -0.24764  -0.19121
  -0.11792   0.02286
 kpt#  11, nband= 10, wtk=  0.02778, kpt=  0.5000 -0.1667  0.2500 (reduced coord)
  -0.71312  -0.55744  -0.44674  -0.40019  -0.36984  -0.31741  -0.26086  -0.23695
  -0.15814   0.11280
 kpt#  12, nband= 10, wtk=  0.02778, kpt= -0.3333 -0.1667  0.5000 (reduced coord)
  -0.71315  -0.55745  -0.44676  -0.40020  -0.36991  -0.31741  -0.26087  -0.23698
  -0.15820   0.11278
 kpt#  13, nband= 10, wtk=  0.02778, kpt= -0.1667 -0.1667 -0.2500 (reduced coord)
  -0.77078  -0.64548  -0.43330  -0.33303  -0.31124  -0.26019  -0.24764  -0.19120
  -0.11790   0.02289
 kpt#  14, nband= 10, wtk=  0.02778, kpt= -0.1667  0.0000  0.0000 (reduced coord)
  -0.80964  -0.69247  -0.47056  -0.33357  -0.24223  -0.18721  -0.16305  -0.11996
  -0.10714  -0.01975
 kpt#  15, nband= 10, wtk=  0.02778, kpt= -0.1667  0.1667  0.2500 (reduced coord)
  -0.80965  -0.69250  -0.47058  -0.33356  -0.24212  -0.18728  -0.16300  -0.11997
  -0.10714  -0.01974
 kpt#  16, nband= 10, wtk=  0.02778, kpt= -0.3333  0.3333  0.2500 (reduced coord)
  -0.75395  -0.62277  -0.42269  -0.38746  -0.33699  -0.27700  -0.23713  -0.16252
  -0.13113   0.04332
 kpt#  17, nband= 10, wtk=  0.02778, kpt= -0.1667  0.3333  0.5000 (reduced coord)
  -0.77079  -0.64550  -0.43332  -0.33303  -0.31123  -0.26020  -0.24767  -0.19120
  -0.11791   0.02289
 kpt#  18, nband= 10, wtk=  0.02778, kpt=  0.5000  0.5000  0.2500 (reduced coord)
  -0.70936  -0.53486  -0.49573  -0.44157  -0.37012  -0.25740  -0.24688  -0.18437
  -0.17373   0.12515
 kpt#  19, nband= 10, wtk=  0.02778, kpt= -0.3333  0.5000  0.5000 (reduced coord)
  -0.71315  -0.55745  -0.44676  -0.40021  -0.36990  -0.31741  -0.26086  -0.23696
  -0.15821   0.11277
 kpt#  20, nband= 10, wtk=  0.02778, kpt= -0.1667  0.5000 -0.2500 (reduced coord)
  -0.71312  -0.55744  -0.44674  -0.40021  -0.36984  -0.31740  -0.26085  -0.23693
  -0.15815   0.11279
 kpt#  21, nband= 10, wtk=  0.02778, kpt=  0.3333 -0.3333  0.2500 (reduced coord)
  -0.75395  -0.62277  -0.42265  -0.38749  -0.33700  -0.27703  -0.23711  -0.16256
  -0.13113   0.04330
 kpt#  22, nband= 10, wtk=  0.02778, kpt=  0.5000 -0.3333  0.5000 (reduced coord)
  -0.71315  -0.55745  -0.44676  -0.40021  -0.36989  -0.31741  -0.26087  -0.23697
  -0.15821   0.11276
 kpt#  23, nband= 10, wtk=  0.02778, kpt= -0.3333 -0.3333 -0.2500 (reduced coord)
  -0.68802  -0.47281  -0.47144  -0.41439  -0.39636  -0.35017  -0.33845  -0.20880
  -0.18801   0.13335
 kpt#  24, nband= 10, wtk=  0.02778, kpt=  0.0000 -0.1667  0.0000 (reduced coord)
  -0.80964  -0.69247  -0.47056  -0.33357  -0.24222  -0.18721  -0.16307  -0.11996
  -0.10712  -0.01975
 kpt#  25, nband= 10, wtk=  0.02778, kpt=  0.1667 -0.1667  0.2500 (reduced coord)
  -0.80965  -0.69248  -0.47057  -0.33358  -0.24213  -0.18725  -0.16298  -0.11997
  -0.10718  -0.01975
 kpt#  26, nband= 10, wtk=  0.02778, kpt=  0.3333 -0.1667  0.5000 (reduced coord)
  -0.77079  -0.64550  -0.43332  -0.33303  -0.31122  -0.26020  -0.24765  -0.19123
  -0.11791   0.02289
 kpt#  27, nband= 10, wtk=  0.02778, kpt=  0.5000 -0.1667 -0.2500 (reduced coord)
  -0.71312  -0.55745  -0.44674  -0.40018  -0.36985  -0.31739  -0.26085  -0.23695
  -0.15814   0.11280
 kpt#  28, nband= 10, wtk=  0.01389, kpt=  0.5000  0.0000  0.0000 (reduced coord)
  -0.70938  -0.53490  -0.49573  -0.44162  -0.37025  -0.25735  -0.24691  -0.18438
  -0.17374   0.12521
 kpt#  29, nband= 10, wtk=  0.02778, kpt= -0.3333  0.0000  0.2500 (reduced coord)
  -0.75395  -0.62277  -0.42265  -0.38749  -0.33701  -0.27704  -0.23710  -0.16257
  -0.13113   0.04331
 kpt#  30, nband= 10, wtk=  0.02778, kpt= -0.1667  0.0000  0.5000 (reduced coord)
  -0.80962  -0.69248  -0.47057  -0.33348  -0.24213  -0.18720  -0.16294  -0.11994
  -0.10713  -0.01972
 kpt#  31, nband= 10, wtk=  0.01389, kpt=  0.0000  0.5000  0.0000 (reduced coord)
  -0.70938  -0.53488  -0.49576  -0.44163  -0.37024  -0.25735  -0.24687  -0.18437
  -0.17377   0.12515
 kpt#  32, nband= 10, wtk=  0.02778, kpt=  0.0000 -0.3333  0.2500 (reduced coord)
  -0.75395  -0.62277  -0.42269  -0.38747  -0.33699  -0.27700  -0.23713  -0.16251
  -0.13114   0.04332
 kpt#  33, nband= 10, wtk=  0.02778, kpt=  0.0000 -0.1667  0.5000 (reduced coord)
  -0.80962  -0.69248  -0.47057  -0.33348  -0.24213  -0.18720  -0.16297  -0.11994
  -0.10711  -0.01972
 kpt#  34, nband= 10, wtk=  0.02778, kpt=  0.3333  0.0000  0.2500 (reduced coord)
  -0.75395  -0.62278  -0.42268  -0.38746  -0.33699  -0.27701  -0.23713  -0.16253
  -0.13113   0.04332
 kpt#  35, nband= 10, wtk=  0.01389, kpt=  0.5000  0.0000  0.5000 (reduced coord)
  -0.70939  -0.53490  -0.49571  -0.44157  -0.37011  -0.25745  -0.24690  -0.18446
  -0.17368   0.12522
 kpt#  36, nband= 10, wtk=  0.02778, kpt=  0.0000  0.3333  0.2500 (reduced coord)
  -0.75395  -0.62277  -0.42265  -0.38749  -0.33701  -0.27703  -0.23710  -0.16255
  -0.13114   0.04330
 kpt#  37, nband= 10, wtk=  0.01389, kpt=  0.0000  0.5000  0.5000 (reduced coord)
  -0.70939  -0.53488  -0.49574  -0.44158  -0.37011  -0.25745  -0.24686  -0.18444
  -0.17371   0.12516
 kpt#  38, nband= 10, wtk=  0.02778, kpt=  0.0000  0.0000  0.2500 (reduced coord)
  -0.83010  -0.71604  -0.49169  -0.34982  -0.15436  -0.15435  -0.13104  -0.06793
  -0.06788  -0.03989
 Total charge density [el/Bohr^3]
,     Maximum=    5.5650E-01  at reduced coord.    0.0833    0.1250    0.0917
,Next maximum=    5.5650E-01  at reduced coord.    0.0417    0.1250    0.0917
,     Minimum=    3.9049E-08  at reduced coord.    0.9583    0.8750    0.5861
,Next minimum=    3.9055E-08  at reduced coord.    0.1250    0.0417    0.5861
,  Integrated=    1.8000E+01

--------------------------------------------------------------------------------
 Components of total free energy (in Hartree) :

    Kinetic energy  =  1.91509259360517E+01
    Hartree energy  =  5.03752430228925E+02
    XC energy       = -7.87409198791309E+00
    Ewald energy    =  4.82763470279089E+02
    PspCore energy  = -1.08225384392824E-02
    Loc. psp. energy= -1.02497513427554E+03
    NL   psp  energy=  1.97528855574363E+00
    >>>>>>>>> Etotal= -2.52179338020809E+01

 Other information on the energy :
    Total energy(eV)= -6.86214876844492E+02 ; Band energy (Ha)=  -6.6888694857E+00
--------------------------------------------------------------------------------

 Cartesian components of stress tensor (hartree/bohr^3)
  sigma(1 1)=  2.42545576E-04  sigma(3 2)= -1.11408686E-07
  sigma(2 2)=  2.42543268E-04  sigma(3 1)= -5.97614798E-08
  sigma(3 3)=  2.51281265E-04  sigma(2 1)=  1.19931749E-08

-Cartesian components of stress tensor (GPa)         [Pressure= -7.2216E+00 GPa]
- sigma(1 1)=  7.13593601E+00  sigma(3 2)= -3.27775615E-03
- sigma(2 2)=  7.13586811E+00  sigma(3 1)= -1.75824314E-03
- sigma(3 3)=  7.39294881E+00  sigma(2 1)=  3.52851328E-04

== END DATASET(S) ==============================================================
================================================================================
  
 -outvars: echo values of variables after computation  --------
            acell      4.7500000000E+00  4.7500000000E+00  7.5000000000E+01 Bohr
              amu      1.00794000E+00  1.40067400E+01  1.08110000E+01
                       1.20110000E+01
           diemac      1.20000000E+01
             ecut      2.40000000E+01 Hartree
           etotal1    -2.5217933802E+01
            fcart1     1.4193329591E-05  2.1863590587E-05  7.9309813639E-03
                       1.8488971008E-05 -1.1327793456E-05  2.3210314566E-04
                      -1.6677914226E-05  1.0258907733E-05 -3.5796669820E-03
                      -2.3729591483E-05  2.6229814665E-05  1.0439522653E-03
                       9.8787753583E-06 -4.0779310409E-05 -2.0962934359E-03
                      -2.1535702482E-06 -6.2452091199E-06 -3.5310763570E-03
           getwfk          -1
           istwfk        0    0    0    0    0    0    0    0    0    0
                         0    0    0    0    0    0    0    0    0    0
                         0    0    0    0    0    0    0    3    0    0
                         6    0    0    0    5    0    8    0
           jdtset        1
              kpt     -1.66666667E-01 -3.33333333E-01  0.00000000E+00
                      -3.33333333E-01 -1.66666667E-01  0.00000000E+00
                      -1.66666667E-01 -1.66666667E-01  2.50000000E-01
                      -1.66666667E-01  3.33333333E-01  0.00000000E+00
                      -3.33333333E-01  5.00000000E-01  0.00000000E+00
                      -1.66666667E-01  5.00000000E-01  2.50000000E-01
                       5.00000000E-01 -3.33333333E-01  0.00000000E+00
                      -3.33333333E-01 -3.33333333E-01  2.50000000E-01
                      -1.66666667E-01 -3.33333333E-01  5.00000000E-01
                       3.33333333E-01 -1.66666667E-01  0.00000000E+00
                       5.00000000E-01 -1.66666667E-01  2.50000000E-01
                      -3.33333333E-01 -1.66666667E-01  5.00000000E-01
                      -1.66666667E-01 -1.66666667E-01 -2.50000000E-01
                      -1.66666667E-01  0.00000000E+00  0.00000000E+00
                      -1.66666667E-01  1.66666667E-01  2.50000000E-01
                      -3.33333333E-01  3.33333333E-01  2.50000000E-01
                      -1.66666667E-01  3.33333333E-01  5.00000000E-01
                       5.00000000E-01  5.00000000E-01  2.50000000E-01
                      -3.33333333E-01  5.00000000E-01  5.00000000E-01
                      -1.66666667E-01  5.00000000E-01 -2.50000000E-01
                       3.33333333E-01 -3.33333333E-01  2.50000000E-01
                       5.00000000E-01 -3.33333333E-01  5.00000000E-01
                      -3.33333333E-01 -3.33333333E-01 -2.50000000E-01
                       0.00000000E+00 -1.66666667E-01  0.00000000E+00
                       1.66666667E-01 -1.66666667E-01  2.50000000E-01
                       3.33333333E-01 -1.66666667E-01  5.00000000E-01
                       5.00000000E-01 -1.66666667E-01 -2.50000000E-01
                       5.00000000E-01  0.00000000E+00  0.00000000E+00
                      -3.33333333E-01  0.00000000E+00  2.50000000E-01
                      -1.66666667E-01  0.00000000E+00  5.00000000E-01
                       0.00000000E+00  5.00000000E-01  0.00000000E+00
                       0.00000000E+00 -3.33333333E-01  2.50000000E-01
                       0.00000000E+00 -1.66666667E-01  5.00000000E-01
                       3.33333333E-01  0.00000000E+00  2.50000000E-01
                       5.00000000E-01  0.00000000E+00  5.00000000E-01
                       0.00000000E+00  3.33333333E-01  2.50000000E-01
                       0.00000000E+00  5.00000000E-01  5.00000000E-01
                       0.00000000E+00  0.00000000E+00  2.50000000E-01
         kptrlatt        6    0    0      0    6    0     -3   -3    2
          kptrlen      2.85000000E+01
P           mkmem           4
            natom           6
            nband          10
           ndtset           1
            ngfft          24      24     360
             nkpt          38
            npkpt          12
            nstep          10
             nsym           1
           ntypat           4
              occ      2.000000  2.000000  2.000000  2.000000  2.000000  2.000000
                       2.000000  2.000000  2.000000  0.000000
        optforces           1
            rprim      8.6602540378E-01  5.0000000000E-01  0.0000000000E+00
                      -8.6602540378E-01  5.0000000000E-01  0.0000000000E+00
                       0.0000000000E+00  0.0000000000E+00  1.0000000000E+00
           shiftk      0.00000000E+00  0.00000000E+00  5.00000000E-01
          spgroup           1
           strten1     2.4254557590E-04  2.4254326807E-04  2.5128126482E-04
                      -1.1140868578E-07 -5.9761479780E-08  1.1993174900E-08
           toldfe      1.00000000E-06 Hartree
            typat      1  2  3  4  4  1
              wtk        0.02778    0.02778    0.02778    0.02778    0.02778    0.02778
                         0.02778    0.02778    0.02778    0.02778    0.02778    0.02778
                         0.02778    0.02778    0.02778    0.02778    0.02778    0.02778
                         0.02778    0.02778    0.02778    0.02778    0.02778    0.02778
                         0.02778    0.02778    0.02778    0.01389    0.02778    0.02778
                         0.01389    0.02778    0.02778    0.02778    0.01389    0.02778
                         0.01389    0.02778
           xangst     -3.1321893141E-04 -5.6192216508E-04  4.7914248882E+00
                      -1.2616590089E-04 -2.3460859872E-04  3.7460214688E+00
                       1.4511184347E+00 -2.3460859872E-04  3.2199867246E+00
                       1.4512047118E+00 -7.7208542265E-05  1.5940639305E+00
                      -1.2313424467E-05 -2.7705072756E-05  1.1212718606E+00
                       0.0000000000E+00  0.0000000000E+00  0.0000000000E+00
            xcart     -5.9189800000E-04 -1.0618790000E-03  9.0544808250E+00
                      -2.3841900000E-04 -4.4334600000E-04  7.0789546640E+00
                       2.7422164280E+00 -4.4334600000E-04  6.0848930610E+00
                       2.7423794680E+00 -1.4590300000E-04  3.0123442670E+00
                      -2.3269000000E-05 -5.2355000000E-05  2.1188967370E+00
                       0.0000000000E+00  0.0000000000E+00  0.0000000000E+00
             xred     -2.9549715150E-04 -1.5160979587E-04  1.2072641100E-01
                      -1.2231521554E-04 -6.4356784457E-05  9.4386062187E-02
                       3.3321600987E-01 -3.3340268187E-01  8.1131907480E-02
                       3.3329844654E-01 -3.3335987938E-01  4.0164590227E-02
                      -1.3850392298E-05 -8.1938182287E-06  2.8251956493E-02
                       0.0000000000E+00  0.0000000000E+00  0.0000000000E+00
            znucl        1.00000    7.00000    5.00000    6.00000

================================================================================


- Timing analysis has been suppressed with timopt=0



================================================================================

 Suggested references for the acknowledgment of ABINIT usage.

 The users of ABINIT have little formal obligations with respect to the ABINIT group
 (those specified in the GNU General Public License, http://www.gnu.org/copyleft/gpl.txt).
 However, it is common practice in the scientific literature,
 to acknowledge the efforts of people that have made the research possible.
 In this spirit, please find below suggested citations of work written by ABINIT developers,
 corresponding to implementations inside of ABINIT that you have used in the present run.
 Note also that it will be of great value to readers of publications presenting these results,
 to read papers enabling them to understand the theoretical formalism and details
 of the ABINIT implementation.
 For information on why they are suggested, see also http://www.abinit.org/about/?text=acknowledgments.

 [1] ABINIT : First-principles approach of materials and nanosystem properties.
 X. Gonze, B. Amadon, P.-M. Anglade, J.-M. Beuken, F. Bottin, P. Boulanger, F. Bruneval,
 D. Caliste, R. Caracas, M. Cote, T. Deutsch, L. Genovese, Ph. Ghosez, M. Giantomassi
 S. Goedecker, D.R. Hamann, P. Hermet, F. Jollet, G. Jomard, S. Leroux, M. Mancini, S. Mazevet,
 M.J.T. Oliveira, G. Onida, Y. Pouillon, T. Rangel, G.-M. Rignanese, D. Sangalli, R. Shaltaf,
 M. Torrent, M.J. Verstraete, G. Zerah, J.W. Zwanziger
 Computer Phys. Comm. 180, 2582-2615 (2009).
 Comment : the third generic paper describing the ABINIT project.
 Note that a version of this paper, that is not formatted for Computer Phys. Comm. 
 is available at http://www.abinit.org/about/ABINIT_CPC_v10.pdf .
 The licence allows the authors to put it on the Web.

 [2] A brief introduction to the ABINIT software package.
 X. Gonze, G.-M. Rignanese, M. Verstraete, J.-M. Beuken, Y. Pouillon, R. Caracas, F. Jollet,
 M. Torrent, G. Zerah, M. Mikami, Ph. Ghosez, M. Veithen, J.-Y. Raty, V. Olevano, F. Bruneval,
 L. Reining, R. Godby, G. Onida, D.R. Hamann, and D.C. Allan.
 Z. Kristallogr. 220, 558-562 (2005).
 Comment : the second generic paper describing the ABINIT project. Note that this paper
 should be cited especially if you are using the GW part of ABINIT, as several authors
 of this part are not in the list of authors of the first or third paper.
 The .pdf of the latter paper is available at http://www.abinit.org/about/zfk_0505-06_558-562.pdf.
 Note that it should not redistributed (Copyright by Oldenburg Wissenshaftverlag,
 the licence allows the authors to put it on the Web).


 And optionally :

 [3] First-principles computation of material properties : the ABINIT software project. 
 X. Gonze, J.-M. Beuken, R. Caracas, F. Detraux, M. Fuchs, G.-M. Rignanese, L. Sindic,
 M. Verstraete, G. Zerah, F. Jollet, M. Torrent, A. Roy, M. Mikami, Ph. Ghosez, J.-Y. Raty, D.C. Allan.
 Computational Materials Science 25, 478-492 (2002). http://dx.doi.org/10.1016/S0927-0256(02)00325-7
 Comment : the original paper describing the ABINIT project.

 [4] Fast radix 2, 3, 4 and 5 kernels for Fast Fourier Transformations
 on computers with overlapping multiply-add instructions.
 S. Goedecker, SIAM J. on Scientific Computing 18, 1605 (1997).
-
- Proc.   0 individual time (sec): cpu=         18.7  wall=         18.8

================================================================================

 Calculation completed.
.Delivered    6 WARNINGs and   8 COMMENTs to log file.
+Overall time at end (sec) : cpu=        224.9  wall=        224.9
