
.Version 7.0.5 of ABINIT 
.(MPI version, prepared for a x86_64_none_intel12.1 computer) 

.Copyright (C) 1998-2012 ABINIT group . 
 ABINIT comes with ABSOLUTELY NO WARRANTY.
 It is free software, and you are welcome to redistribute it
 under certain conditions (GNU General Public License,
 see ~abinit/COPYING or http://www.gnu.org/copyleft/gpl.txt).

 ABINIT is a project of the Universite Catholique de Louvain,
 Corning Inc. and other collaborators, see ~abinit/doc/developers/contributors.txt .
 Please read ~abinit/doc/users/acknowledgments.html for suggested
 acknowledgments of the ABINIT effort.
 For more information, see http://www.abinit.org .

.Starting date : Tue 21 Mar 2017.
- ( at  0h10 )
  

 herald :  WARNING -
  The starting date is more than 3 years after the initial release
  of this version of ABINIT, namely Jan 2013.
  This version of ABINIT is not supported anymore.
  Action : please, switch to a more recent version of ABINIT.
- input  file    -> aa-ecut.in
- output file    -> aa-ecut.outE
- root for input  files -> aa-ecut_i
- root for output files -> aa-ecut_o


 DATASET    1 : space group P1 (#  1); Bravais aP (primitive triclinic)
================================================================================
 Values of the parameters that define the memory need for DATASET  1.
   intxc =         0  ionmov =         0    iscf =         7 xclevel =         1
  lmnmax =         1   lnmax =         1   mband =        10  mffmem =         1
P  mgfft =       384   mkmem =         4 mpssoang=         2     mpw =     12807
  mqgrid =     19099   natom =         6    nfft =    279936    nkpt =        38
  nloalg =         4  nspden =         1 nspinor =         1  nsppol =         1
    nsym =         1  n1xccc =         0  ntypat =         4  occopt =         1
================================================================================
P This job should need less than                      84.287 Mbytes of memory.
  Rough estimation (10% accuracy) of disk space for files :
  WF disk file :     74.261 Mbytes ; DEN or POT disk file :      2.138 Mbytes.
================================================================================

--------------------------------------------------------------------------------
------------- Echo of variables that govern the present computation ------------
--------------------------------------------------------------------------------
-
- outvars: echo of selected default values                                      
-   accesswff0 =  0 , fftalg0 =112 , wfoptalg0 =  0
-
- outvars: echo of global parameters not present in the input file              
-  max_nthreads =    0
-
 -outvars: echo values of preprocessed input variables --------
            acell      4.7500000000E+00  4.7500000000E+00  7.5000000000E+01 Bohr
              amu      1.00794000E+00  1.40067400E+01  1.08110000E+01
                       1.20110000E+01
           diemac      1.20000000E+01
             ecut      3.20000000E+01 Hartree
           getwfk          -1
           istwfk        0    0    0    0    0    0    0    0    0    0
                         0    0    0    0    0    0    0    0    0    0
                         0    0    0    0    0    0    0    3    0    0
                         6    0    0    0    5    0    8    0
           jdtset        1
              kpt     -1.66666667E-01 -3.33333333E-01  0.00000000E+00
                      -3.33333333E-01 -1.66666667E-01  0.00000000E+00
                      -1.66666667E-01 -1.66666667E-01  2.50000000E-01
                      -1.66666667E-01  3.33333333E-01  0.00000000E+00
                      -3.33333333E-01  5.00000000E-01  0.00000000E+00
                      -1.66666667E-01  5.00000000E-01  2.50000000E-01
                       5.00000000E-01 -3.33333333E-01  0.00000000E+00
                      -3.33333333E-01 -3.33333333E-01  2.50000000E-01
                      -1.66666667E-01 -3.33333333E-01  5.00000000E-01
                       3.33333333E-01 -1.66666667E-01  0.00000000E+00
                       5.00000000E-01 -1.66666667E-01  2.50000000E-01
                      -3.33333333E-01 -1.66666667E-01  5.00000000E-01
                      -1.66666667E-01 -1.66666667E-01 -2.50000000E-01
                      -1.66666667E-01  0.00000000E+00  0.00000000E+00
                      -1.66666667E-01  1.66666667E-01  2.50000000E-01
                      -3.33333333E-01  3.33333333E-01  2.50000000E-01
                      -1.66666667E-01  3.33333333E-01  5.00000000E-01
                       5.00000000E-01  5.00000000E-01  2.50000000E-01
                      -3.33333333E-01  5.00000000E-01  5.00000000E-01
                      -1.66666667E-01  5.00000000E-01 -2.50000000E-01
                       3.33333333E-01 -3.33333333E-01  2.50000000E-01
                       5.00000000E-01 -3.33333333E-01  5.00000000E-01
                      -3.33333333E-01 -3.33333333E-01 -2.50000000E-01
                       0.00000000E+00 -1.66666667E-01  0.00000000E+00
                       1.66666667E-01 -1.66666667E-01  2.50000000E-01
                       3.33333333E-01 -1.66666667E-01  5.00000000E-01
                       5.00000000E-01 -1.66666667E-01 -2.50000000E-01
                       5.00000000E-01  0.00000000E+00  0.00000000E+00
                      -3.33333333E-01  0.00000000E+00  2.50000000E-01
                      -1.66666667E-01  0.00000000E+00  5.00000000E-01
                       0.00000000E+00  5.00000000E-01  0.00000000E+00
                       0.00000000E+00 -3.33333333E-01  2.50000000E-01
                       0.00000000E+00 -1.66666667E-01  5.00000000E-01
                       3.33333333E-01  0.00000000E+00  2.50000000E-01
                       5.00000000E-01  0.00000000E+00  5.00000000E-01
                       0.00000000E+00  3.33333333E-01  2.50000000E-01
                       0.00000000E+00  5.00000000E-01  5.00000000E-01
                       0.00000000E+00  0.00000000E+00  2.50000000E-01
         kptrlatt        6    0    0      0    6    0     -3   -3    2
          kptrlen      2.85000000E+01
P           mkmem           4
            natom           6
            nband          10
           ndtset           1
            ngfft          27      27     384
             nkpt          38
            npkpt          12
            nstep          10
             nsym           1
           ntypat           4
              occ      2.000000  2.000000  2.000000  2.000000  2.000000  2.000000
                       2.000000  2.000000  2.000000  0.000000
        optforces           1
            rprim      8.6602540378E-01  5.0000000000E-01  0.0000000000E+00
                      -8.6602540378E-01  5.0000000000E-01  0.0000000000E+00
                       0.0000000000E+00  0.0000000000E+00  1.0000000000E+00
           shiftk      0.00000000E+00  0.00000000E+00  5.00000000E-01
          spgroup           1
           toldfe      1.00000000E-06 Hartree
            typat      1  2  3  4  4  1
              wtk        0.02778    0.02778    0.02778    0.02778    0.02778    0.02778
                         0.02778    0.02778    0.02778    0.02778    0.02778    0.02778
                         0.02778    0.02778    0.02778    0.02778    0.02778    0.02778
                         0.02778    0.02778    0.02778    0.02778    0.02778    0.02778
                         0.02778    0.02778    0.02778    0.01389    0.02778    0.02778
                         0.01389    0.02778    0.02778    0.02778    0.01389    0.02778
                         0.01389    0.02778
           xangst     -3.1321893141E-04 -5.6192216508E-04  4.7914248882E+00
                      -1.2616590089E-04 -2.3460859872E-04  3.7460214688E+00
                       1.4511184347E+00 -2.3460859872E-04  3.2199867246E+00
                       1.4512047118E+00 -7.7208542265E-05  1.5940639305E+00
                      -1.2313424467E-05 -2.7705072756E-05  1.1212718606E+00
                       0.0000000000E+00  0.0000000000E+00  0.0000000000E+00
            xcart     -5.9189800000E-04 -1.0618790000E-03  9.0544808250E+00
                      -2.3841900000E-04 -4.4334600000E-04  7.0789546640E+00
                       2.7422164280E+00 -4.4334600000E-04  6.0848930610E+00
                       2.7423794680E+00 -1.4590300000E-04  3.0123442670E+00
                      -2.3269000000E-05 -5.2355000000E-05  2.1188967370E+00
                       0.0000000000E+00  0.0000000000E+00  0.0000000000E+00
             xred     -2.9549715150E-04 -1.5160979587E-04  1.2072641100E-01
                      -1.2231521554E-04 -6.4356784457E-05  9.4386062187E-02
                       3.3321600987E-01 -3.3340268187E-01  8.1131907480E-02
                       3.3329844654E-01 -3.3335987938E-01  4.0164590227E-02
                      -1.3850392298E-05 -8.1938182287E-06  2.8251956493E-02
                       0.0000000000E+00  0.0000000000E+00  0.0000000000E+00
            znucl        1.00000    7.00000    5.00000    6.00000

================================================================================

 chkinp: Checking input parameters for consistency, jdtset=   1.

================================================================================
== DATASET  1 ==================================================================
-   nproc =   12

 Exchange-correlation functional for the present dataset will be:
  LDA: new Teter (4/93) with spin-polarized option - ixc=1
 Citation for XC functional:
  S. Goedecker, M. Teter, J. Huetter, PRB 54, 1703 (1996)
 
 Real(R)+Recip(G) space primitive vectors, cartesian coordinates (Bohr,Bohr^-1):
 R(1)=  4.1136207  2.3750000  0.0000000  G(1)=  0.1215474  0.2105263  0.0000000
 R(2)= -4.1136207  2.3750000  0.0000000  G(2)= -0.1215474  0.2105263  0.0000000
 R(3)=  0.0000000  0.0000000 75.0000000  G(3)=  0.0000000  0.0000000  0.0133333
 Unit cell volume ucvol=  1.4654774E+03 bohr^3
 Angles (23,13,12)=  9.00000000E+01  9.00000000E+01  1.20000000E+02 degrees

 getcut: wavevector=  0.0000  0.0000  0.0000  ngfft=  27  27 384
         ecut(hartree)=     32.000   => boxcut(ratio)=   2.01062

--- Pseudopotential description ------------------------------------------------
- pspini: atom type   1  psp file is /home/reinaldo/tiniba/pseudopotentials/hgh/1h.1.hgh
- pspatm: opening atomic psp file    /home/reinaldo/tiniba/pseudopotentials/hgh/1h.1.hgh
- Hartwigsen-Goedecker-Hutter psp for H,  from PRB58, 3641 (1998)
-  1.00000   1.00000     10605                znucl, zion, pspdat
    3    1    0    0      2001   0.00000      pspcod,pspxc,lmax,lloc,mmax,r2well
 rloc=   0.2000000
 cc1 =  -4.1802370; cc2 =   0.7250750; cc3 =   0.0000000; cc4 =   0.0000000
 rrs =   0.0000000; h11s=   0.0000000; h22s=   0.0000000; h33s=   0.0000000
-  Local part computed in reciprocal space.

 pspatm : COMMENT -
  the projectors are not normalized,
  so that the KB energies are not consistent with 
  definition in PRB44, 8503 (1991). 
  However, this does not influence the results obtained hereafter.
 pspatm: epsatm=   -0.00129784
         --- l  ekb(1:nproj) -->
 pspatm: atomic psp has been read  and splines computed

- pspini: atom type   2  psp file is /home/reinaldo/tiniba/pseudopotentials/hgh/7n.5.hgh
- pspatm: opening atomic psp file    /home/reinaldo/tiniba/pseudopotentials/hgh/7n.5.hgh
- Hartwigsen-Goedecker-Hutter psp for N,  from PRB58, 3641 (1998)
-  7.00000   5.00000     10605                znucl, zion, pspdat
    3    1    1    0      2001   0.00000      pspcod,pspxc,lmax,lloc,mmax,r2well
 rloc=   0.2891790
 cc1 = -12.2348200; cc2 =   1.7664070; cc3 =   0.0000000; cc4 =   0.0000000
 rrs =   0.2566050; h11s=  13.5522430; h22s=   0.0000000; h33s=   0.0000000
 rrp =   0.2701340; h11p=   0.0000000; h22p=   0.0000000; h33p=   0.0000000
                    k11p=   0.0031310; k22p=   0.0000000; k33p=   0.0000000
-  Local part computed in reciprocal space.

 pspatm : COMMENT -
  the projectors are not normalized,
  so that the KB energies are not consistent with 
  definition in PRB44, 8503 (1991). 
  However, this does not influence the results obtained hereafter.
 pspatm: epsatm=   -0.01437983
         --- l  ekb(1:nproj) -->
             0    0.811730
 pspatm: atomic psp has been read  and splines computed

- pspini: atom type   3  psp file is /home/reinaldo/tiniba/pseudopotentials/hgh/5b.3.hgh
- pspatm: opening atomic psp file    /home/reinaldo/tiniba/pseudopotentials/hgh/5b.3.hgh
- Hartwigsen-Goedecker-Hutter psp for B,  from PRB58, 3641 (1998)
-  5.00000   3.00000     10605                znucl, zion, pspdat
    3    1    1    0      2001   0.00000      pspcod,pspxc,lmax,lloc,mmax,r2well
 rloc=   0.4339300
 cc1 =  -5.5786420; cc2 =   0.8042510; cc3 =   0.0000000; cc4 =   0.0000000
 rrs =   0.3738430; h11s=   6.2339280; h22s=   0.0000000; h33s=   0.0000000
 rrp =   0.3603930; h11p=   0.0000000; h22p=   0.0000000; h33p=   0.0000000
                    k11p=   0.0008780; k22p=   0.0000000; k33p=   0.0000000
-  Local part computed in reciprocal space.

 pspatm : COMMENT -
  the projectors are not normalized,
  so that the KB energies are not consistent with 
  definition in PRB44, 8503 (1991). 
  However, this does not influence the results obtained hereafter.
 pspatm: epsatm=   -0.52475100
         --- l  ekb(1:nproj) -->
             0    1.154608
 pspatm: atomic psp has been read  and splines computed

- pspini: atom type   4  psp file is /home/reinaldo/tiniba/pseudopotentials/hgh/6c.4.hgh
- pspatm: opening atomic psp file    /home/reinaldo/tiniba/pseudopotentials/hgh/6c.4.hgh
- Hartwigsen-Goedecker-Hutter psp for C,  from PRB58, 3641 (1998)
-  6.00000   4.00000     10605                znucl, zion, pspdat
    3    1    1    0      2001   0.00000      pspcod,pspxc,lmax,lloc,mmax,r2well
 rloc=   0.3488300
 cc1 =  -8.5137710; cc2 =   1.2284320; cc3 =   0.0000000; cc4 =   0.0000000
 rrs =   0.3045530; h11s=   9.5228420; h22s=   0.0000000; h33s=   0.0000000
 rrp =   0.2326770; h11p=   0.0000000; h22p=   0.0000000; h33p=   0.0000000
                    k11p=   0.0041040; k22p=   0.0000000; k33p=   0.0000000
-  Local part computed in reciprocal space.

 pspatm : COMMENT -
  the projectors are not normalized,
  so that the KB energies are not consistent with 
  definition in PRB44, 8503 (1991). 
  However, this does not influence the results obtained hereafter.
 pspatm: epsatm=   -0.16969744
         --- l  ekb(1:nproj) -->
             0    0.953587
 pspatm: atomic psp has been read  and splines computed

  -1.58601851E+01                                ecore*ucvol(ha*bohr**3)
--------------------------------------------------------------------------------

P newkpt: treating     10 bands with npw=   12722 for ikpt=   1 by node    0
P newkpt: treating     10 bands with npw=   12722 for ikpt=   2 by node    0
P newkpt: treating     10 bands with npw=   12619 for ikpt=   3 by node    0
P newkpt: treating     10 bands with npw=   12642 for ikpt=   4 by node    0
P newkpt: treating     10 bands with npw=   12722 for ikpt=   5 by node    1
P newkpt: treating     10 bands with npw=   12732 for ikpt=   6 by node    1
P newkpt: treating     10 bands with npw=   12722 for ikpt=   7 by node    1
P newkpt: treating     10 bands with npw=   12807 for ikpt=   8 by node    1
P newkpt: treating     10 bands with npw=   12732 for ikpt=   9 by node    2
P newkpt: treating     10 bands with npw=   12642 for ikpt=  10 by node    2
P newkpt: treating     10 bands with npw=   12732 for ikpt=  11 by node    2
P newkpt: treating     10 bands with npw=   12732 for ikpt=  12 by node    2
P newkpt: treating     10 bands with npw=   12619 for ikpt=  13 by node    3
P newkpt: treating     10 bands with npw=   12611 for ikpt=  14 by node    3
P newkpt: treating     10 bands with npw=   12611 for ikpt=  15 by node    3
P newkpt: treating     10 bands with npw=   12620 for ikpt=  16 by node    3
P newkpt: treating     10 bands with npw=   12630 for ikpt=  17 by node    4
P newkpt: treating     10 bands with npw=   12668 for ikpt=  18 by node    4
P newkpt: treating     10 bands with npw=   12732 for ikpt=  19 by node    4
P newkpt: treating     10 bands with npw=   12732 for ikpt=  20 by node    4
P newkpt: treating     10 bands with npw=   12620 for ikpt=  21 by node    5
P newkpt: treating     10 bands with npw=   12732 for ikpt=  22 by node    5
P newkpt: treating     10 bands with npw=   12807 for ikpt=  23 by node    5
P newkpt: treating     10 bands with npw=   12611 for ikpt=  24 by node    5
P newkpt: treating     10 bands with npw=   12611 for ikpt=  25 by node    6
P newkpt: treating     10 bands with npw=   12630 for ikpt=  26 by node    6
P newkpt: treating     10 bands with npw=   12732 for ikpt=  27 by node    6
P newkpt: treating     10 bands with npw=    6332 for ikpt=  28 by node    6
P newkpt: treating     10 bands with npw=   12620 for ikpt=  29 by node    7
P newkpt: treating     10 bands with npw=   12600 for ikpt=  30 by node    7
P newkpt: treating     10 bands with npw=    6332 for ikpt=  31 by node    7
P newkpt: treating     10 bands with npw=   12620 for ikpt=  32 by node    7
P newkpt: treating     10 bands with npw=   12600 for ikpt=  33 by node    8
P newkpt: treating     10 bands with npw=   12620 for ikpt=  34 by node    8
P newkpt: treating     10 bands with npw=    6338 for ikpt=  35 by node    8
P newkpt: treating     10 bands with npw=   12620 for ikpt=  36 by node    8
P newkpt: treating     10 bands with npw=    6338 for ikpt=  37 by node    9
P newkpt: treating     10 bands with npw=   12503 for ikpt=  38 by node    9
 
 setup2: Arith. and geom. avg. npw (full set) are   12667.083   12666.913

================================================================================

     iter   Etot(hartree)      deltaE(h)  residm     vres2    diffor    maxfor
 ETOT  1  -25.025303054298    -2.503E+01 1.504E-01 3.319E+04 1.042E-01 1.042E-01
 ETOT  2  -25.309332003923    -2.840E-01 1.075E-01 8.367E+03 1.096E-01 6.411E-02
 ETOT  3  -25.342865995689    -3.353E-02 6.877E-03 4.183E+03 4.735E-02 4.608E-02
 ETOT  4  -25.345412908239    -2.547E-03 3.818E-03 2.153E+03 6.790E-02 4.112E-02
 ETOT  5  -25.355225075785    -9.812E-03 1.438E-03 5.092E+02 4.741E-02 8.921E-03
 ETOT  6  -25.355420569861    -1.955E-04 1.709E-04 4.019E+02 1.063E-02 4.862E-03
 ETOT  7  -25.355928435431    -5.079E-04 7.914E-05 1.299E+02 7.412E-03 5.020E-03
 ETOT  8  -25.355873994530     5.444E-05 1.659E-05 8.627E+01 2.855E-03 4.455E-03
 ETOT  9  -25.355981670145    -1.077E-04 3.556E-06 4.395E+01 1.399E-03 5.854E-03
 ETOT 10  -25.356003495006    -2.182E-05 8.755E-06 5.398E+00 2.524E-03 8.378E-03

 Cartesian components of stress tensor (hartree/bohr^3)
  sigma(1 1)=  1.42379546E-04  sigma(3 2)= -1.23125081E-07
  sigma(2 2)=  1.42489593E-04  sigma(3 1)= -8.07427375E-08
  sigma(3 3)=  1.43733770E-04  sigma(2 1)=  1.74310421E-08
 

 scprqt:  WARNING -
  nstep=   10 was not enough SCF cycles to converge;
  maximum energy difference=  2.182E-05 exceeds toldfe=  1.000E-06

================================================================================

 ----iterations are completed or convergence reached----

 Mean square residual over all n,k,spin=   6.0959E-07; max=  8.7549E-06
  -0.1667 -0.3333  0.0000    1  3.81899E-06 kpt; spin; max resid(k); each band:
  3.27E-07 1.29E-07 6.86E-08 1.49E-07 4.89E-07 4.70E-08 1.08E-07 1.72E-07
  8.47E-08 3.82E-06
  -0.3333 -0.1667  0.0000    1  3.78767E-06 kpt; spin; max resid(k); each band:
  3.27E-07 1.30E-07 6.87E-08 1.38E-07 4.92E-07 4.79E-08 1.09E-07 1.73E-07
  8.54E-08 3.79E-06
  -0.1667 -0.1667  0.2500    1  2.20613E-06 kpt; spin; max resid(k); each band:
  3.10E-07 1.59E-07 4.77E-07 1.83E-07 2.25E-07 1.17E-07 1.06E-07 6.63E-08
  3.71E-07 2.21E-06
  -0.1667  0.3333  0.0000    1  2.20208E-06 kpt; spin; max resid(k); each band:
  3.10E-07 1.56E-07 4.76E-07 1.88E-07 2.31E-07 1.28E-07 1.21E-07 5.81E-08
  3.44E-07 2.20E-06
  -0.3333  0.5000  0.0000    1  3.76921E-06 kpt; spin; max resid(k); each band:
  3.26E-07 1.21E-07 7.64E-08 1.78E-07 4.89E-07 4.42E-08 9.50E-08 1.71E-07
  6.53E-08 3.77E-06
  -0.1667  0.5000  0.2500    1  3.79433E-06 kpt; spin; max resid(k); each band:
  3.27E-07 1.25E-07 7.32E-08 1.60E-07 4.92E-07 4.64E-08 9.65E-08 1.83E-07
  6.74E-08 3.79E-06
   0.5000 -0.3333  0.0000    1  3.82758E-06 kpt; spin; max resid(k); each band:
  3.27E-07 1.25E-07 7.41E-08 1.73E-07 4.88E-07 4.34E-08 1.01E-07 1.67E-07
  7.21E-08 3.83E-06
  -0.3333 -0.3333  0.2500    1  3.15164E-07 kpt; spin; max resid(k); each band:
  3.15E-07 1.44E-07 5.18E-08 3.17E-08 3.29E-08 3.06E-07 4.36E-08 1.08E-07
  4.77E-08 1.85E-07
  -0.1667 -0.3333  0.5000    1  3.77642E-06 kpt; spin; max resid(k); each band:
  3.27E-07 1.29E-07 6.86E-08 1.49E-07 4.89E-07 4.70E-08 1.08E-07 1.72E-07
  8.47E-08 3.78E-06
   0.3333 -0.1667  0.0000    1  2.20001E-06 kpt; spin; max resid(k); each band:
  3.10E-07 1.59E-07 4.77E-07 1.85E-07 2.28E-07 1.30E-07 1.19E-07 5.60E-08
  3.54E-07 2.20E-06
   0.5000 -0.1667  0.2500    1  3.77986E-06 kpt; spin; max resid(k); each band:
  3.27E-07 1.30E-07 7.08E-08 1.44E-07 4.95E-07 4.66E-08 1.03E-07 1.79E-07
  7.49E-08 3.78E-06
  -0.3333 -0.1667  0.5000    1  3.78807E-06 kpt; spin; max resid(k); each band:
  3.27E-07 1.30E-07 6.87E-08 1.38E-07 4.92E-07 4.79E-08 1.08E-07 1.73E-07
  8.54E-08 3.79E-06
  -0.1667 -0.1667 -0.2500    1  2.20377E-06 kpt; spin; max resid(k); each band:
  3.10E-07 1.58E-07 4.77E-07 1.83E-07 2.25E-07 1.17E-07 1.06E-07 6.64E-08
  3.71E-07 2.20E-06
  -0.1667  0.0000  0.0000    1  5.04830E-06 kpt; spin; max resid(k); each band:
  3.09E-07 1.74E-07 4.97E-07 6.82E-07 4.34E-08 7.07E-09 1.07E-07 1.83E-06
  1.98E-08 5.05E-06
  -0.1667  0.1667  0.2500    1  5.06836E-06 kpt; spin; max resid(k); each band:
  3.09E-07 1.72E-07 4.96E-07 6.82E-07 4.54E-08 5.34E-09 1.13E-07 1.81E-06
  1.40E-08 5.07E-06
  -0.3333  0.3333  0.2500    1  2.33478E-06 kpt; spin; max resid(k); each band:
  3.13E-07 1.45E-07 3.38E-07 2.76E-07 1.14E-07 4.06E-07 6.34E-09 1.21E-08
  1.44E-07 2.33E-06
  -0.1667  0.3333  0.5000    1  2.20663E-06 kpt; spin; max resid(k); each band:
  3.10E-07 1.56E-07 4.76E-07 1.88E-07 2.31E-07 1.28E-07 1.21E-07 5.81E-08
  3.45E-07 2.21E-06
   0.5000  0.5000  0.2500    1  8.53427E-06 kpt; spin; max resid(k); each band:
  3.38E-07 9.97E-08 1.16E-07 1.22E-07 3.16E-07 7.02E-09 1.32E-07 1.23E-08
  6.43E-08 8.53E-06
  -0.3333  0.5000  0.5000    1  3.79831E-06 kpt; spin; max resid(k); each band:
  3.26E-07 1.21E-07 7.64E-08 1.78E-07 4.89E-07 4.42E-08 9.50E-08 1.71E-07
  6.53E-08 3.80E-06
  -0.1667  0.5000 -0.2500    1  3.78692E-06 kpt; spin; max resid(k); each band:
  3.27E-07 1.25E-07 7.32E-08 1.60E-07 4.92E-07 4.64E-08 9.65E-08 1.83E-07
  6.73E-08 3.79E-06
   0.3333 -0.3333  0.2500    1  2.27782E-06 kpt; spin; max resid(k); each band:
  3.13E-07 1.45E-07 3.38E-07 2.76E-07 1.13E-07 4.06E-07 6.34E-09 1.21E-08
  1.44E-07 2.28E-06
   0.5000 -0.3333  0.5000    1  3.79126E-06 kpt; spin; max resid(k); each band:
  3.27E-07 1.25E-07 7.40E-08 1.73E-07 4.88E-07 4.35E-08 1.01E-07 1.66E-07
  7.21E-08 3.79E-06
  -0.3333 -0.3333 -0.2500    1  3.15162E-07 kpt; spin; max resid(k); each band:
  3.15E-07 1.44E-07 5.18E-08 3.17E-08 3.29E-08 3.06E-07 4.36E-08 1.08E-07
  4.77E-08 1.85E-07
   0.0000 -0.1667  0.0000    1  5.06396E-06 kpt; spin; max resid(k); each band:
  3.09E-07 1.72E-07 4.97E-07 6.82E-07 4.39E-08 6.52E-09 1.04E-07 1.82E-06
  2.54E-08 5.06E-06
   0.1667 -0.1667  0.2500    1  5.04428E-06 kpt; spin; max resid(k); each band:
  3.09E-07 1.72E-07 4.96E-07 6.82E-07 4.54E-08 5.33E-09 1.13E-07 1.81E-06
  1.40E-08 5.04E-06
   0.3333 -0.1667  0.5000    1  2.20245E-06 kpt; spin; max resid(k); each band:
  3.10E-07 1.59E-07 4.77E-07 1.85E-07 2.28E-07 1.30E-07 1.19E-07 5.60E-08
  3.54E-07 2.20E-06
   0.5000 -0.1667 -0.2500    1  3.80496E-06 kpt; spin; max resid(k); each band:
  3.27E-07 1.30E-07 7.08E-08 1.44E-07 4.95E-07 4.66E-08 1.03E-07 1.79E-07
  7.49E-08 3.80E-06
   0.5000  0.0000  0.0000    1  8.49027E-06 kpt; spin; max resid(k); each band:
  3.38E-07 1.29E-07 9.19E-08 7.82E-08 3.24E-07 9.28E-09 1.23E-07 1.66E-08
  7.95E-08 8.49E-06
  -0.3333  0.0000  0.2500    1  2.27501E-06 kpt; spin; max resid(k); each band:
  3.14E-07 1.50E-07 3.42E-07 2.67E-07 9.47E-08 3.95E-07 8.46E-09 1.65E-08
  1.52E-07 2.28E-06
  -0.1667  0.0000  0.5000    1  5.07344E-06 kpt; spin; max resid(k); each band:
  3.09E-07 1.73E-07 4.97E-07 6.82E-07 4.34E-08 7.08E-09 1.07E-07 1.83E-06
  1.97E-08 5.07E-06
   0.0000  0.5000  0.0000    1  8.49233E-06 kpt; spin; max resid(k); each band:
  3.38E-07 1.22E-07 9.76E-08 9.55E-08 3.22E-07 8.60E-09 1.24E-07 2.23E-08
  7.42E-08 8.49E-06
   0.0000 -0.3333  0.2500    1  2.27914E-06 kpt; spin; max resid(k); each band:
  3.14E-07 1.47E-07 3.38E-07 2.70E-07 1.01E-07 3.95E-07 7.82E-09 2.24E-08
  1.50E-07 2.28E-06
   0.0000 -0.1667  0.5000    1  5.07874E-06 kpt; spin; max resid(k); each band:
  3.09E-07 1.72E-07 4.97E-07 6.83E-07 4.39E-08 6.52E-09 1.04E-07 1.82E-06
  2.54E-08 5.08E-06
   0.3333  0.0000  0.2500    1  2.39246E-06 kpt; spin; max resid(k); each band:
  3.14E-07 1.50E-07 3.41E-07 2.67E-07 9.47E-08 3.95E-07 8.46E-09 1.65E-08
  1.52E-07 2.39E-06
   0.5000  0.0000  0.5000    1  8.74043E-06 kpt; spin; max resid(k); each band:
  3.38E-07 1.29E-07 9.19E-08 7.82E-08 3.24E-07 9.30E-09 1.23E-07 1.66E-08
  7.95E-08 8.74E-06
   0.0000  0.3333  0.2500    1  2.28597E-06 kpt; spin; max resid(k); each band:
  3.14E-07 1.47E-07 3.38E-07 2.70E-07 1.01E-07 3.95E-07 7.81E-09 2.24E-08
  1.50E-07 2.29E-06
   0.0000  0.5000  0.5000    1  8.52140E-06 kpt; spin; max resid(k); each band:
  3.38E-07 1.22E-07 9.77E-08 9.55E-08 3.22E-07 8.60E-09 1.24E-07 2.23E-08
  7.42E-08 8.52E-06
   0.0000  0.0000  0.2500    1  8.75493E-06 kpt; spin; max resid(k); each band:
  3.10E-07 1.78E-07 4.93E-07 8.28E-07 6.68E-09 6.17E-09 3.38E-06 2.91E-08
  2.01E-08 8.75E-06
 reduced coordinates (array xred) for    6 atoms
      -0.000295497152     -0.000151609796      0.120726411000
      -0.000122315216     -0.000064356784      0.094386062187
       0.333216009872     -0.333402681872      0.081131907480
       0.333298446543     -0.333359879385      0.040164590227
      -0.000013850392     -0.000008193818      0.028251956493
       0.000000000000      0.000000000000      0.000000000000
 rms dE/dt=  1.6929E-01; max dE/dt=  2.2650E-01; dE/dt below (all hartree)
    1      -0.000112388702      0.000005526305     -0.629244632368
    2       0.000012723147      0.000062399009      0.150723188631
    3       0.000001926980     -0.000066861991      0.226495949313
    4      -0.000287009450      0.000126033091     -0.046138279907
    5       0.000300212904     -0.000121702515      0.167362714685
    6       0.000035998723     -0.000012325852      0.125455262477
 
 cartesian coordinates (angstrom) at end:
    1     -0.00031321893141    -0.00056192216508     4.79142488820518
    2     -0.00012616590089    -0.00023460859872     3.74602146883068
    3      1.45111843471868    -0.00023460859872     3.21998672458864
    4      1.45120471177077    -0.00007720854226     1.59406393052315
    5     -0.00001231342447    -0.00002770507276     1.12127186057612
    6      0.00000000000000     0.00000000000000     0.00000000000000

 cartesian forces (hartree/bohr) at end:
    1      0.00001348944667     0.00002055108888     0.00837804888231
    2      0.00000519515422    -0.00001776144868    -0.00202152206434
    3     -0.00000920394115     0.00001172427078    -0.00303182554011
    4      0.00004936143843     0.00003194350169     0.00060329751616
    5     -0.00005212555163    -0.00003952739251    -0.00224338241173
    6     -0.00000671654653    -0.00000693002014    -0.00168461638230
 frms,max,avg= 2.2572585E-03 8.3780489E-03   8.428E-07  1.946E-06  1.188E-05 h/b

 cartesian forces (eV/Angstrom) at end:
    1      0.00069365517926     0.00105677939085     0.43081655905392
    2      0.00026714554844    -0.00091333033664    -0.10395083533708
    3     -0.00047328564367     0.00060288619281    -0.15590272451126
    4      0.00253826700610     0.00164260076237     0.03102280299983
    5     -0.00268040341003    -0.00203258007569    -0.11535935214034
    6     -0.00034537868009    -0.00035635593370    -0.08662645006506
 frms,max,avg= 1.1607289E-01 4.3081656E-01   4.334E-05  1.001E-04  6.109E-04 e/A
 length scales=  4.750000000000  4.750000000000 75.000000000000 bohr
              =  2.513591740802  2.513591740802 39.688290644250 angstroms
 prteigrs : about to open file aa-ecut_o_DS1_EIG
 Fermi (or HOMO) energy (hartree) =  -0.06718   Average Vxc (hartree)=  -0.08279
 Eigenvalues (hartree) for nkpt=  38  k points:
 kpt#   1, nband= 10, wtk=  0.02778, kpt= -0.1667 -0.3333  0.0000 (reduced coord)
  -0.70943  -0.55500  -0.44490  -0.39844  -0.36915  -0.31644  -0.25977  -0.23585
  -0.15758   0.11313
 kpt#   2, nband= 10, wtk=  0.02778, kpt= -0.3333 -0.1667  0.0000 (reduced coord)
  -0.70943  -0.55500  -0.44489  -0.39843  -0.36917  -0.31644  -0.25978  -0.23586
  -0.15756   0.11314
 kpt#   3, nband= 10, wtk=  0.02778, kpt= -0.1667 -0.1667  0.2500 (reduced coord)
  -0.76691  -0.64295  -0.43217  -0.33216  -0.31031  -0.25980  -0.24674  -0.19018
  -0.11749   0.02298
 kpt#   4, nband= 10, wtk=  0.02778, kpt= -0.1667  0.3333  0.0000 (reduced coord)
  -0.76693  -0.64297  -0.43223  -0.33219  -0.31034  -0.25981  -0.24676  -0.19019
  -0.11753   0.02296
 kpt#   5, nband= 10, wtk=  0.02778, kpt= -0.3333  0.5000  0.0000 (reduced coord)
  -0.70943  -0.55501  -0.44489  -0.39843  -0.36916  -0.31644  -0.25978  -0.23585
  -0.15757   0.11313
 kpt#   6, nband= 10, wtk=  0.02778, kpt= -0.1667  0.5000  0.2500 (reduced coord)
  -0.70945  -0.55501  -0.44488  -0.39844  -0.36917  -0.31646  -0.25979  -0.23586
  -0.15758   0.11312
 kpt#   7, nband= 10, wtk=  0.02778, kpt=  0.5000 -0.3333  0.0000 (reduced coord)
  -0.70943  -0.55501  -0.44489  -0.39842  -0.36915  -0.31645  -0.25978  -0.23586
  -0.15757   0.11312
 kpt#   8, nband= 10, wtk=  0.02778, kpt= -0.3333 -0.3333  0.2500 (reduced coord)
  -0.68466  -0.47086  -0.46929  -0.41286  -0.39500  -0.34998  -0.33661  -0.20851
  -0.18711   0.13501
 kpt#   9, nband= 10, wtk=  0.02778, kpt= -0.1667 -0.3333  0.5000 (reduced coord)
  -0.70945  -0.55501  -0.44488  -0.39843  -0.36917  -0.31648  -0.25979  -0.23587
  -0.15758   0.11312
 kpt#  10, nband= 10, wtk=  0.02778, kpt=  0.3333 -0.1667  0.0000 (reduced coord)
  -0.76693  -0.64297  -0.43222  -0.33219  -0.31034  -0.25981  -0.24675  -0.19021
  -0.11753   0.02296
 kpt#  11, nband= 10, wtk=  0.02778, kpt=  0.5000 -0.1667  0.2500 (reduced coord)
  -0.70945  -0.55501  -0.44488  -0.39842  -0.36917  -0.31646  -0.25981  -0.23588
  -0.15757   0.11313
 kpt#  12, nband= 10, wtk=  0.02778, kpt= -0.3333 -0.1667  0.5000 (reduced coord)
  -0.70945  -0.55501  -0.44488  -0.39842  -0.36918  -0.31647  -0.25980  -0.23588
  -0.15757   0.11314
 kpt#  13, nband= 10, wtk=  0.02778, kpt= -0.1667 -0.1667 -0.2500 (reduced coord)
  -0.76691  -0.64295  -0.43217  -0.33216  -0.31031  -0.25980  -0.24674  -0.19018
  -0.11749   0.02298
 kpt#  14, nband= 10, wtk=  0.02778, kpt= -0.1667  0.0000  0.0000 (reduced coord)
  -0.80581  -0.68999  -0.46912  -0.33257  -0.24218  -0.18784  -0.16211  -0.11932
  -0.10648  -0.01964
 kpt#  15, nband= 10, wtk=  0.02778, kpt= -0.1667  0.1667  0.2500 (reduced coord)
  -0.80581  -0.69000  -0.46911  -0.33257  -0.24216  -0.18787  -0.16210  -0.11932
  -0.10648  -0.01963
 kpt#  16, nband= 10, wtk=  0.02778, kpt= -0.3333  0.3333  0.2500 (reduced coord)
  -0.74987  -0.62008  -0.42151  -0.38601  -0.33539  -0.27607  -0.23654  -0.16154
  -0.13064   0.04356
 kpt#  17, nband= 10, wtk=  0.02778, kpt= -0.1667  0.3333  0.5000 (reduced coord)
  -0.76693  -0.64296  -0.43219  -0.33216  -0.31033  -0.25981  -0.24674  -0.19018
  -0.11750   0.02297
 kpt#  18, nband= 10, wtk=  0.02778, kpt=  0.5000  0.5000  0.2500 (reduced coord)
  -0.70544  -0.53250  -0.49338  -0.43912  -0.36953  -0.25634  -0.24625  -0.18298
  -0.17286   0.12632
 kpt#  19, nband= 10, wtk=  0.02778, kpt= -0.3333  0.5000  0.5000 (reduced coord)
  -0.70946  -0.55501  -0.44487  -0.39842  -0.36918  -0.31648  -0.25980  -0.23587
  -0.15758   0.11312
 kpt#  20, nband= 10, wtk=  0.02778, kpt= -0.1667  0.5000 -0.2500 (reduced coord)
  -0.70946  -0.55500  -0.44489  -0.39844  -0.36917  -0.31646  -0.25979  -0.23586
  -0.15759   0.11312
 kpt#  21, nband= 10, wtk=  0.02778, kpt=  0.3333 -0.3333  0.2500 (reduced coord)
  -0.74987  -0.62007  -0.42151  -0.38602  -0.33538  -0.27606  -0.23653  -0.16154
  -0.13065   0.04356
 kpt#  22, nband= 10, wtk=  0.02778, kpt=  0.5000 -0.3333  0.5000 (reduced coord)
  -0.70946  -0.55501  -0.44488  -0.39841  -0.36917  -0.31648  -0.25980  -0.23588
  -0.15758   0.11312
 kpt#  23, nband= 10, wtk=  0.02778, kpt= -0.3333 -0.3333 -0.2500 (reduced coord)
  -0.68466  -0.47086  -0.46929  -0.41286  -0.39500  -0.34998  -0.33661  -0.20851
  -0.18711   0.13501
 kpt#  24, nband= 10, wtk=  0.02778, kpt=  0.0000 -0.1667  0.0000 (reduced coord)
  -0.80581  -0.68999  -0.46912  -0.33257  -0.24217  -0.18784  -0.16213  -0.11932
  -0.10646  -0.01964
 kpt#  25, nband= 10, wtk=  0.02778, kpt=  0.1667 -0.1667  0.2500 (reduced coord)
  -0.80582  -0.69000  -0.46910  -0.33256  -0.24216  -0.18786  -0.16211  -0.11932
  -0.10649  -0.01963
 kpt#  26, nband= 10, wtk=  0.02778, kpt=  0.3333 -0.1667  0.5000 (reduced coord)
  -0.76693  -0.64296  -0.43219  -0.33217  -0.31032  -0.25982  -0.24673  -0.19021
  -0.11750   0.02297
 kpt#  27, nband= 10, wtk=  0.02778, kpt=  0.5000 -0.1667 -0.2500 (reduced coord)
  -0.70945  -0.55502  -0.44487  -0.39842  -0.36918  -0.31646  -0.25981  -0.23588
  -0.15757   0.11314
 kpt#  28, nband= 10, wtk=  0.01389, kpt=  0.5000  0.0000  0.0000 (reduced coord)
  -0.70544  -0.53249  -0.49337  -0.43913  -0.36950  -0.25633  -0.24627  -0.18298
  -0.17283   0.12639
 kpt#  29, nband= 10, wtk=  0.02778, kpt= -0.3333  0.0000  0.2500 (reduced coord)
  -0.74987  -0.62007  -0.42150  -0.38602  -0.33540  -0.27607  -0.23653  -0.16154
  -0.13064   0.04356
 kpt#  30, nband= 10, wtk=  0.02778, kpt= -0.1667  0.0000  0.5000 (reduced coord)
  -0.80581  -0.68999  -0.46909  -0.33255  -0.24215  -0.18784  -0.16207  -0.11932
  -0.10648  -0.01963
 kpt#  31, nband= 10, wtk=  0.01389, kpt=  0.0000  0.5000  0.0000 (reduced coord)
  -0.70544  -0.53248  -0.49340  -0.43913  -0.36950  -0.25633  -0.24623  -0.18297
  -0.17286   0.12633
 kpt#  32, nband= 10, wtk=  0.02778, kpt=  0.0000 -0.3333  0.2500 (reduced coord)
  -0.74987  -0.62008  -0.42151  -0.38602  -0.33540  -0.27607  -0.23653  -0.16152
  -0.13065   0.04356
 kpt#  33, nband= 10, wtk=  0.02778, kpt=  0.0000 -0.1667  0.5000 (reduced coord)
  -0.80581  -0.68999  -0.46909  -0.33255  -0.24214  -0.18784  -0.16209  -0.11932
  -0.10646  -0.01963
 kpt#  34, nband= 10, wtk=  0.02778, kpt=  0.3333  0.0000  0.2500 (reduced coord)
  -0.74987  -0.62008  -0.42150  -0.38602  -0.33540  -0.27608  -0.23653  -0.16154
  -0.13064   0.04356
 kpt#  35, nband= 10, wtk=  0.01389, kpt=  0.5000  0.0000  0.5000 (reduced coord)
  -0.70546  -0.53251  -0.49339  -0.43913  -0.36954  -0.25635  -0.24630  -0.18297
  -0.17285   0.12638
 kpt#  36, nband= 10, wtk=  0.02778, kpt=  0.0000  0.3333  0.2500 (reduced coord)
  -0.74987  -0.62007  -0.42151  -0.38602  -0.33540  -0.27606  -0.23653  -0.16153
  -0.13065   0.04356
 kpt#  37, nband= 10, wtk=  0.01389, kpt=  0.0000  0.5000  0.5000 (reduced coord)
  -0.70546  -0.53249  -0.49342  -0.43914  -0.36954  -0.25635  -0.24626  -0.18296
  -0.17288   0.12632
 kpt#  38, nband= 10, wtk=  0.02778, kpt=  0.0000  0.0000  0.2500 (reduced coord)
  -0.82661  -0.71397  -0.49007  -0.34868  -0.15580  -0.15578  -0.13034  -0.06722
  -0.06718  -0.03972
 Total charge density [el/Bohr^3]
,     Maximum=    5.9295E-01  at reduced coord.    0.8519    0.9259    0.0938
,Next maximum=    5.9277E-01  at reduced coord.    0.0741    0.9259    0.0938
,     Minimum=    1.5350E-08  at reduced coord.    0.8889    0.0741    0.6276
,Next minimum=    1.5359E-08  at reduced coord.    0.9259    0.1111    0.6276
,  Integrated=    1.8000E+01

--------------------------------------------------------------------------------
 Components of total free energy (in Hartree) :

    Kinetic energy  =  1.96018736228153E+01
    Hartree energy  =  5.03922016664981E+02
    XC energy       = -7.89363385394338E+00
    Ewald energy    =  4.82763470279089E+02
    PspCore energy  = -1.08225384392824E-02
    Loc. psp. energy= -1.02564279993479E+03
    NL   psp  energy=  1.90389226527924E+00
    >>>>>>>>> Etotal= -2.53560034950063E+01

 Other information on the energy :
    Total energy(eV)= -6.89971944258118E+02 ; Band energy (Ha)=  -6.6628478934E+00
--------------------------------------------------------------------------------

 Cartesian components of stress tensor (hartree/bohr^3)
  sigma(1 1)=  1.42379546E-04  sigma(3 2)= -1.23125081E-07
  sigma(2 2)=  1.42489593E-04  sigma(3 1)= -8.07427375E-08
  sigma(3 3)=  1.43733770E-04  sigma(2 1)=  1.74310421E-08

-Cartesian components of stress tensor (GPa)         [Pressure= -4.2033E+00 GPa]
- sigma(1 1)=  4.18895017E+00  sigma(3 2)= -3.62246433E-03
- sigma(2 2)=  4.19218784E+00  sigma(3 1)= -2.37553295E-03
- sigma(3 3)=  4.22879281E+00  sigma(2 1)=  5.12838879E-04

== END DATASET(S) ==============================================================
================================================================================
  
 -outvars: echo values of variables after computation  --------
            acell      4.7500000000E+00  4.7500000000E+00  7.5000000000E+01 Bohr
              amu      1.00794000E+00  1.40067400E+01  1.08110000E+01
                       1.20110000E+01
           diemac      1.20000000E+01
             ecut      3.20000000E+01 Hartree
           etotal1    -2.5356003495E+01
            fcart1     1.3489446673E-05  2.0551088876E-05  8.3780488823E-03
                       5.1951542170E-06 -1.7761448684E-05 -2.0215220643E-03
                      -9.2039411546E-06  1.1724270778E-05 -3.0318255401E-03
                       4.9361438428E-05  3.1943501688E-05  6.0329751616E-04
                      -5.2125551634E-05 -3.9527392514E-05 -2.2433824117E-03
                      -6.7165465298E-06 -6.9300201427E-06 -1.6846163823E-03
           getwfk          -1
           istwfk        0    0    0    0    0    0    0    0    0    0
                         0    0    0    0    0    0    0    0    0    0
                         0    0    0    0    0    0    0    3    0    0
                         6    0    0    0    5    0    8    0
           jdtset        1
              kpt     -1.66666667E-01 -3.33333333E-01  0.00000000E+00
                      -3.33333333E-01 -1.66666667E-01  0.00000000E+00
                      -1.66666667E-01 -1.66666667E-01  2.50000000E-01
                      -1.66666667E-01  3.33333333E-01  0.00000000E+00
                      -3.33333333E-01  5.00000000E-01  0.00000000E+00
                      -1.66666667E-01  5.00000000E-01  2.50000000E-01
                       5.00000000E-01 -3.33333333E-01  0.00000000E+00
                      -3.33333333E-01 -3.33333333E-01  2.50000000E-01
                      -1.66666667E-01 -3.33333333E-01  5.00000000E-01
                       3.33333333E-01 -1.66666667E-01  0.00000000E+00
                       5.00000000E-01 -1.66666667E-01  2.50000000E-01
                      -3.33333333E-01 -1.66666667E-01  5.00000000E-01
                      -1.66666667E-01 -1.66666667E-01 -2.50000000E-01
                      -1.66666667E-01  0.00000000E+00  0.00000000E+00
                      -1.66666667E-01  1.66666667E-01  2.50000000E-01
                      -3.33333333E-01  3.33333333E-01  2.50000000E-01
                      -1.66666667E-01  3.33333333E-01  5.00000000E-01
                       5.00000000E-01  5.00000000E-01  2.50000000E-01
                      -3.33333333E-01  5.00000000E-01  5.00000000E-01
                      -1.66666667E-01  5.00000000E-01 -2.50000000E-01
                       3.33333333E-01 -3.33333333E-01  2.50000000E-01
                       5.00000000E-01 -3.33333333E-01  5.00000000E-01
                      -3.33333333E-01 -3.33333333E-01 -2.50000000E-01
                       0.00000000E+00 -1.66666667E-01  0.00000000E+00
                       1.66666667E-01 -1.66666667E-01  2.50000000E-01
                       3.33333333E-01 -1.66666667E-01  5.00000000E-01
                       5.00000000E-01 -1.66666667E-01 -2.50000000E-01
                       5.00000000E-01  0.00000000E+00  0.00000000E+00
                      -3.33333333E-01  0.00000000E+00  2.50000000E-01
                      -1.66666667E-01  0.00000000E+00  5.00000000E-01
                       0.00000000E+00  5.00000000E-01  0.00000000E+00
                       0.00000000E+00 -3.33333333E-01  2.50000000E-01
                       0.00000000E+00 -1.66666667E-01  5.00000000E-01
                       3.33333333E-01  0.00000000E+00  2.50000000E-01
                       5.00000000E-01  0.00000000E+00  5.00000000E-01
                       0.00000000E+00  3.33333333E-01  2.50000000E-01
                       0.00000000E+00  5.00000000E-01  5.00000000E-01
                       0.00000000E+00  0.00000000E+00  2.50000000E-01
         kptrlatt        6    0    0      0    6    0     -3   -3    2
          kptrlen      2.85000000E+01
P           mkmem           4
            natom           6
            nband          10
           ndtset           1
            ngfft          27      27     384
             nkpt          38
            npkpt          12
            nstep          10
             nsym           1
           ntypat           4
              occ      2.000000  2.000000  2.000000  2.000000  2.000000  2.000000
                       2.000000  2.000000  2.000000  0.000000
        optforces           1
            rprim      8.6602540378E-01  5.0000000000E-01  0.0000000000E+00
                      -8.6602540378E-01  5.0000000000E-01  0.0000000000E+00
                       0.0000000000E+00  0.0000000000E+00  1.0000000000E+00
           shiftk      0.00000000E+00  0.00000000E+00  5.00000000E-01
          spgroup           1
           strten1     1.4237954646E-04  1.4248959253E-04  1.4373377018E-04
                      -1.2312508077E-07 -8.0742737547E-08  1.7431042132E-08
           toldfe      1.00000000E-06 Hartree
            typat      1  2  3  4  4  1
              wtk        0.02778    0.02778    0.02778    0.02778    0.02778    0.02778
                         0.02778    0.02778    0.02778    0.02778    0.02778    0.02778
                         0.02778    0.02778    0.02778    0.02778    0.02778    0.02778
                         0.02778    0.02778    0.02778    0.02778    0.02778    0.02778
                         0.02778    0.02778    0.02778    0.01389    0.02778    0.02778
                         0.01389    0.02778    0.02778    0.02778    0.01389    0.02778
                         0.01389    0.02778
           xangst     -3.1321893141E-04 -5.6192216508E-04  4.7914248882E+00
                      -1.2616590089E-04 -2.3460859872E-04  3.7460214688E+00
                       1.4511184347E+00 -2.3460859872E-04  3.2199867246E+00
                       1.4512047118E+00 -7.7208542265E-05  1.5940639305E+00
                      -1.2313424467E-05 -2.7705072756E-05  1.1212718606E+00
                       0.0000000000E+00  0.0000000000E+00  0.0000000000E+00
            xcart     -5.9189800000E-04 -1.0618790000E-03  9.0544808250E+00
                      -2.3841900000E-04 -4.4334600000E-04  7.0789546640E+00
                       2.7422164280E+00 -4.4334600000E-04  6.0848930610E+00
                       2.7423794680E+00 -1.4590300000E-04  3.0123442670E+00
                      -2.3269000000E-05 -5.2355000000E-05  2.1188967370E+00
                       0.0000000000E+00  0.0000000000E+00  0.0000000000E+00
             xred     -2.9549715150E-04 -1.5160979587E-04  1.2072641100E-01
                      -1.2231521554E-04 -6.4356784457E-05  9.4386062187E-02
                       3.3321600987E-01 -3.3340268187E-01  8.1131907480E-02
                       3.3329844654E-01 -3.3335987938E-01  4.0164590227E-02
                      -1.3850392298E-05 -8.1938182287E-06  2.8251956493E-02
                       0.0000000000E+00  0.0000000000E+00  0.0000000000E+00
            znucl        1.00000    7.00000    5.00000    6.00000

================================================================================


- Timing analysis has been suppressed with timopt=0



================================================================================

 Suggested references for the acknowledgment of ABINIT usage.

 The users of ABINIT have little formal obligations with respect to the ABINIT group
 (those specified in the GNU General Public License, http://www.gnu.org/copyleft/gpl.txt).
 However, it is common practice in the scientific literature,
 to acknowledge the efforts of people that have made the research possible.
 In this spirit, please find below suggested citations of work written by ABINIT developers,
 corresponding to implementations inside of ABINIT that you have used in the present run.
 Note also that it will be of great value to readers of publications presenting these results,
 to read papers enabling them to understand the theoretical formalism and details
 of the ABINIT implementation.
 For information on why they are suggested, see also http://www.abinit.org/about/?text=acknowledgments.

 [1] ABINIT : First-principles approach of materials and nanosystem properties.
 X. Gonze, B. Amadon, P.-M. Anglade, J.-M. Beuken, F. Bottin, P. Boulanger, F. Bruneval,
 D. Caliste, R. Caracas, M. Cote, T. Deutsch, L. Genovese, Ph. Ghosez, M. Giantomassi
 S. Goedecker, D.R. Hamann, P. Hermet, F. Jollet, G. Jomard, S. Leroux, M. Mancini, S. Mazevet,
 M.J.T. Oliveira, G. Onida, Y. Pouillon, T. Rangel, G.-M. Rignanese, D. Sangalli, R. Shaltaf,
 M. Torrent, M.J. Verstraete, G. Zerah, J.W. Zwanziger
 Computer Phys. Comm. 180, 2582-2615 (2009).
 Comment : the third generic paper describing the ABINIT project.
 Note that a version of this paper, that is not formatted for Computer Phys. Comm. 
 is available at http://www.abinit.org/about/ABINIT_CPC_v10.pdf .
 The licence allows the authors to put it on the Web.

 [2] A brief introduction to the ABINIT software package.
 X. Gonze, G.-M. Rignanese, M. Verstraete, J.-M. Beuken, Y. Pouillon, R. Caracas, F. Jollet,
 M. Torrent, G. Zerah, M. Mikami, Ph. Ghosez, M. Veithen, J.-Y. Raty, V. Olevano, F. Bruneval,
 L. Reining, R. Godby, G. Onida, D.R. Hamann, and D.C. Allan.
 Z. Kristallogr. 220, 558-562 (2005).
 Comment : the second generic paper describing the ABINIT project. Note that this paper
 should be cited especially if you are using the GW part of ABINIT, as several authors
 of this part are not in the list of authors of the first or third paper.
 The .pdf of the latter paper is available at http://www.abinit.org/about/zfk_0505-06_558-562.pdf.
 Note that it should not redistributed (Copyright by Oldenburg Wissenshaftverlag,
 the licence allows the authors to put it on the Web).


 And optionally :

 [3] First-principles computation of material properties : the ABINIT software project. 
 X. Gonze, J.-M. Beuken, R. Caracas, F. Detraux, M. Fuchs, G.-M. Rignanese, L. Sindic,
 M. Verstraete, G. Zerah, F. Jollet, M. Torrent, A. Roy, M. Mikami, Ph. Ghosez, J.-Y. Raty, D.C. Allan.
 Computational Materials Science 25, 478-492 (2002). http://dx.doi.org/10.1016/S0927-0256(02)00325-7
 Comment : the original paper describing the ABINIT project.

 [4] Fast radix 2, 3, 4 and 5 kernels for Fast Fourier Transformations
 on computers with overlapping multiply-add instructions.
 S. Goedecker, SIAM J. on Scientific Computing 18, 1605 (1997).
-
- Proc.   0 individual time (sec): cpu=         28.6  wall=         28.7

================================================================================

 Calculation completed.
.Delivered    6 WARNINGs and   8 COMMENTs to log file.
+Overall time at end (sec) : cpu=        341.3  wall=        344.0
